Program Version,EnergyPlus, Version 9.5.0-de239b2e5f, YMD=2023.02.16 21:09
1,5,Environment Title[],Latitude[deg],Longitude[deg],Time Zone[],Elevation[m]
2,8,Day of Simulation[],Month[],Day of Month[],DST Indicator[1=yes 0=no],Hour[],StartMinute[],EndMinute[],DayType
3,5,Cumulative Day of Simulation[],Month[],Day of Month[],DST Indicator[1=yes 0=no],DayType  ! When Daily Report Variables Requested
4,2,Cumulative Days of Simulation[],Month[]  ! When Monthly Report Variables Requested
5,1,Cumulative Days of Simulation[] ! When Run Period Report Variables Requested
6,1,Calendar Year of Simulation[] ! When Annual Report Variables Requested
7,1,Environment,Site Outdoor Air Drybulb Temperature [C] !TimeStep
8,1,ZONE ONE,Zone Windows Total Transmitted Solar Radiation Rate [W] !TimeStep
9,1,ZN001:WALL001,Surface Outside Face Sunlit Fraction [] !TimeStep
10,1,ZN001:WALL001,Surface Outside Face Incident Solar Radiation Rate per Area [W/m2] !TimeStep
11,1,ZN001:WALL001:WIN001,Surface Outside Face Sunlit Fraction [] !TimeStep
12,1,ZN001:WALL001:WIN001,Surface Outside Face Incident Solar Radiation Rate per Area [W/m2] !TimeStep
13,1,ZN001:WALL001:WIN001,Surface Window Transmitted Solar Radiation Rate [W] !TimeStep
14,1,ZN001:WALL001,Surface Inside Face Temperature [C] !TimeStep
15,1,ZN001:WALL001,Surface Outside Face Temperature [C] !TimeStep
16,1,ZN001:WALL001:WIN001,Surface Inside Face Temperature [C] !TimeStep
17,1,ZN001:WALL001:WIN001,Surface Outside Face Temperature [C] !TimeStep
18,1,ZONE ONE,Zone Mean Air Temperature [C] !TimeStep
End of Data Dictionary
1,RUN PERIOD 1,  41.98, -87.92,  -6.00, 201.00
2,1, 1, 1, 0, 1, 0.00,15.00,Tuesday
7,-4.324999999999999
8,0.0
9,0.0
10,0.0
11,0.0
12,0.0
13,0.0
14,7.809964710977477
15,-5.861767587631399
16,4.82708014820696
17,-3.8028618940085154
18,8.311562197131487
2,1, 1, 1, 0, 1,15.00,30.00,Tuesday
7,-6.949999999999999
8,0.0
9,0.0
10,0.0
11,0.0
12,0.0
13,0.0
14,7.62261928215767
15,-8.328887252119867
16,4.172483061026242
17,-5.848810611745762
18,8.204617946057557
2,1, 1, 1, 0, 1,30.00,45.00,Tuesday
7,-9.575
8,0.0
9,0.0
10,0.0
11,0.0
12,0.0
13,0.0
14,7.414521096776567
15,-10.803967438196269
16,3.510835837589184
17,-7.900751280431905
18,8.065563904748137
2,1, 1, 1, 0, 1,45.00,60.00,Tuesday
7,-12.2
8,0.0
9,0.0
10,0.0
11,0.0
12,0.0
13,0.0
14,7.190186872495937
15,-13.285688855318368
16,2.8339692191931364
17,-9.960301245422273
18,7.904590564675427
2,1, 1, 1, 0, 2, 0.00,15.00,Tuesday
7,-12.075
8,0.0
9,0.0
10,0.0
11,0.0
12,0.0
13,0.0
14,7.113387031052187
15,-13.086451397679913
16,2.7684687039514985
17,-9.803247978915067
18,7.759903542619411
2,1, 1, 1, 0, 2,15.00,30.00,Tuesday
7,-11.95
8,0.0
9,0.0
10,0.0
11,0.0
12,0.0
13,0.0
14,7.02365101767534
15,-12.909540607537747
16,2.7324415280789369
17,-9.665980141574096
18,7.648302607091728
2,1, 1, 1, 0, 2,30.00,45.00,Tuesday
7,-11.825
8,0.0
9,0.0
10,0.0
11,0.0
12,0.0
13,0.0
14,6.951640085304002
15,-12.731467035083022
16,2.7027746548507709
17,-9.528055868949992
18,7.563621258302158
2,1, 1, 1, 0, 2,45.00,60.00,Tuesday
7,-11.7
8,0.0
9,0.0
10,0.0
11,0.0
12,0.0
13,0.0
14,6.890972983391055
15,-12.553483021101746
16,2.6859131919499079
17,-9.387104877023717
18,7.4943050227032039
2,1, 1, 1, 0, 3, 0.00,15.00,Tuesday
7,-11.549999999999999
8,0.0
9,0.0
10,0.0
11,0.0
12,0.0
13,0.0
14,6.832096116436989
15,-12.426374984338914
16,2.6790929338857838
17,-9.236348696046946
18,7.431322441108025
2,1, 1, 1, 0, 3,15.00,30.00,Tuesday
7,-11.399999999999999
8,0.0
9,0.0
10,0.0
11,0.0
12,0.0
13,0.0
14,6.776318783448724
15,-12.300591427079008
16,2.674019891655064
17,-9.085290240579866
18,7.3703851169088179
2,1, 1, 1, 0, 3,30.00,45.00,Tuesday
7,-11.25
8,0.0
9,0.0
10,0.0
11,0.0
12,0.0
13,0.0
14,6.721369289488684
15,-12.176276954941207
16,2.670630847140842
17,-8.933935192775437
18,7.310346248840709
2,1, 1, 1, 0, 3,45.00,60.00,Tuesday
7,-11.1
8,0.0
9,0.0
10,0.0
11,0.0
12,0.0
13,0.0
14,6.666998179322825
15,-12.05348571157491
16,2.6720543404381944
17,-8.79201674341698
18,7.25119609614878
2,1, 1, 1, 0, 4, 0.00,15.00,Tuesday
7,-11.1
8,0.0
9,0.0
10,0.0
11,0.0
12,0.0
13,0.0
14,6.608655359514868
15,-12.026616080990494
16,2.6062385486272889
17,-8.832327140183793
18,7.191793019807488
2,1, 1, 1, 0, 4,15.00,30.00,Tuesday
7,-11.1
8,0.0
9,0.0
10,0.0
11,0.0
12,0.0
13,0.0
14,6.550730068240935
15,-12.00078460033772
16,2.547379986034457
17,-8.879158610113109
18,7.131729351803372
2,1, 1, 1, 0, 4,30.00,45.00,Tuesday
7,-11.1
8,0.0
9,0.0
10,0.0
11,0.0
12,0.0
13,0.0
14,6.49253625511413
15,-11.976414518740807
16,2.489423553406425
17,-8.925579174296047
18,7.0712124625703789
2,1, 1, 1, 0, 4,45.00,60.00,Tuesday
7,-11.1
8,0.0
9,0.0
10,0.0
11,0.0
12,0.0
13,0.0
14,6.434228928267186
15,-11.953375310224143
16,2.4317332247633205
17,-8.970874353920295
18,7.010554464364574
2,1, 1, 1, 0, 5, 0.00,15.00,Tuesday
7,-10.975
8,0.0
9,0.0
10,0.0
11,0.0
12,0.0
13,0.0
14,6.381596280357856
15,-11.831591696404966
16,2.4171140352249269
17,-8.889391179791915
18,6.9511293450675579
2,1, 1, 1, 0, 5,15.00,30.00,Tuesday
7,-10.85
8,0.0
9,0.0
10,0.0
11,0.0
12,0.0
13,0.0
14,6.329228691499598
15,-11.709865001119967
16,2.3997167862005428
17,-8.799733594011059
18,6.8934536528704168
2,1, 1, 1, 0, 5,30.00,45.00,Tuesday
7,-10.725
8,0.0
9,0.0
10,0.0
11,0.0
12,0.0
13,0.0
14,6.277977255120063
15,-11.58811358445279
16,2.3825729553989847
17,-8.70913081511145
18,6.837253151608342
2,1, 1, 1, 0, 5,45.00,60.00,Tuesday
7,-10.6
8,0.0
9,0.0
10,0.0
11,0.0
12,0.0
13,0.0
14,6.227643408038439
15,-11.466371189034783
16,2.366271332098677
17,-8.618243632304257
18,6.782104461243219
2,1, 1, 1, 0, 6, 0.00,15.00,Tuesday
7,-10.6
8,0.0
9,0.0
10,0.0
11,0.0
12,0.0
13,0.0
14,6.170462257896692
15,-11.467473351230101
16,2.3183833814998708
17,-8.622005459961202
18,6.726328801083684
2,1, 1, 1, 0, 6,15.00,30.00,Tuesday
7,-10.6
8,0.0
9,0.0
10,0.0
11,0.0
12,0.0
13,0.0
14,6.1139292869956469
15,-11.468533899641605
16,2.2719140270410209
17,-8.632085853332456
18,6.669214341683301
2,1, 1, 1, 0, 6,30.00,45.00,Tuesday
7,-10.6
8,0.0
9,0.0
10,0.0
11,0.0
12,0.0
13,0.0
14,6.056859822375863
15,-11.469636549687904
16,2.225672739815991
17,-8.642758015905884
18,6.611075819361179
2,1, 1, 1, 0, 6,45.00,60.00,Tuesday
7,-10.6
8,0.0
9,0.0
10,0.0
11,0.0
12,0.0
13,0.0
14,5.999498815816051
15,-11.470736222123506
16,2.1790919440264817
17,-8.653589872892895
18,6.552453784486802
2,1, 1, 1, 0, 7, 0.00,15.00,Tuesday
7,-10.6
8,0.0
9,0.0
10,0.0
11,0.0
12,0.0
13,0.0
14,5.9440125261643239
15,-11.448491738313889
16,2.1226561830219454
17,-8.692732721915377
18,6.493967158861834
2,1, 1, 1, 0, 7,15.00,30.00,Tuesday
7,-10.6
8,0.0
9,0.0
10,0.0
11,0.0
12,0.0
13,0.0
14,5.888431793630532
15,-11.42740217930587
16,2.068487249468717
17,-8.732284193493854
18,6.435943538187005
2,1, 1, 1, 0, 7,30.00,45.00,Tuesday
7,-10.6
8,0.0
9,0.0
10,0.0
11,0.0
12,0.0
13,0.0
14,5.833145817043234
15,-11.407388303839824
16,2.0148930902676058
17,-8.770900878732846
18,6.378376744949386
2,1, 1, 1, 0, 7,45.00,60.00,Tuesday
7,-10.6
8,0.0
9,0.0
10,0.0
11,0.0
12,0.0
13,0.0
14,5.778164279115349
15,-11.388385846527468
16,1.9618799562632035
17,-8.808389834547029
18,6.321170813333985
2,1, 1, 1, 0, 8, 0.00,15.00,Tuesday
7,-10.45
8,0.0
9,0.0
10,0.0
11,0.0
12,0.0
13,0.0
14,5.722832518100236
15,-11.33855476225432
16,1.9412443445667123
17,-8.752300925717976
18,6.264141155772578
2,1, 1, 1, 0, 8,15.00,30.00,Tuesday
7,-10.3
8,198.49303475921466
9,1.0
10,22.819555959623899
11,1.0
12,22.819555959623899
13,198.49303475921466
14,5.795671807443875
15,-9.664562244029146
16,2.2180174310249756
17,-8.430962951404468
18,6.227327868771266
2,1, 1, 1, 0, 8,30.00,45.00,Tuesday
7,-10.15
8,974.6027902410967
9,1.0
10,109.75755355442667
11,1.0
12,109.75755355442667
13,974.6027902410967
14,6.219267775077986
15,-3.2892910679789097
16,3.4019602964460775
17,-7.376943479354736
18,6.266861352760548
2,1, 1, 1, 0, 8,45.00,60.00,Tuesday
7,-10.0
8,1772.2105473427887
9,1.0
10,195.8764694434918
11,1.0
12,195.8764694434918
13,1772.2105473427887
14,6.760148430449618
15,3.1886654008238515
16,4.694591689532956
17,-6.308012789784698
18,6.390329067118401
2,1, 1, 1, 0, 9, 0.00,15.00,Tuesday
7,-9.725
8,2567.07103636241
9,1.0
10,278.97248314719988
11,1.0
12,278.97248314719988
13,2567.07103636241
14,7.219405344190848
15,8.364735302816398
16,6.003212969198785
17,-5.363560367091338
18,6.573222648593953
2,1, 1, 1, 0, 9,15.00,30.00,Tuesday
7,-9.45
8,3404.945077593323
9,1.0
10,364.91995730569456
11,1.0
12,364.91995730569456
13,3404.945077593323
14,7.6946413303055929
15,13.440861824293256
16,7.429722261993561
17,-4.398168134877437
18,6.804142960090314
2,1, 1, 1, 0, 9,30.00,45.00,Tuesday
7,-9.175
8,3959.279359646866
9,1.0
10,420.35879993239237
11,1.0
12,420.35879993239237
13,3959.279359646866
14,8.038651269765803
15,16.19756067930534
16,8.36048321294328
17,-3.7975101990851956
18,7.061027429673928
2,1, 1, 1, 0, 9,45.00,60.00,Tuesday
7,-8.9
8,4534.723640710659
9,1.0
10,478.00138373643099
11,1.0
12,478.00138373643099
13,4534.723640710659
14,8.439498655826169
15,19.191850008057913
16,9.281003782102971
17,-3.1842021411705447
18,7.333065463440461
2,1, 1, 1, 0,10, 0.00,15.00,Tuesday
7,-8.350000000000002
8,5122.325436329882
9,1.0
10,536.9185644770597
11,1.0
12,536.9185644770597
13,5122.325436329882
14,8.79015690145362
15,20.306348793078745
16,10.229605245696803
17,-2.5401045608372785
18,7.620701154850875
2,1, 1, 1, 0,10,15.00,30.00,Tuesday
7,-7.800000000000001
8,5730.227109160092
9,1.0
10,598.0969199229219
11,1.0
12,598.0969199229219
13,5730.227109160092
14,9.172391972406653
15,21.5570504125492
16,11.1943665312412
17,-1.8930771179231556
18,7.755948278821606
2,1, 1, 1, 0,10,30.00,45.00,Tuesday
7,-7.25
8,6129.017662066558
9,1.0
10,637.6133352894237
11,1.0
12,637.6133352894237
13,6129.017662066558
14,9.432427731423698
15,21.613390519797276
16,11.883197864690488
17,-1.4371597767361664
18,8.017524401627539
2,1, 1, 1, 0,10,45.00,60.00,Tuesday
7,-6.7
8,6521.934241945964
9,1.0
10,676.6412284283772
11,1.0
12,676.6412284283772
13,6521.934241945964
14,9.684920727416725
15,21.77070470574628
16,12.515226852573563
17,-0.9866616198123666
18,8.210896094157264
2,1, 1, 1, 0,11, 0.00,15.00,Tuesday
7,-6.275
8,6907.702667445452
9,1.0
10,715.0112779846514
11,1.0
12,715.0112779846514
13,6907.702667445452
14,10.088111514691095
15,23.87022640424538
16,13.224164375408862
17,-0.30561294096105487
18,8.659711690907912
2,1, 1, 1, 0,11,15.00,30.00,Tuesday
7,-5.85
8,7284.390582955339
9,1.0
10,752.5077794605232
11,1.0
12,752.5077794605232
13,7284.390582955339
14,10.542711197480811
15,25.80741052921028
16,13.981544736563194
17,0.36668511747575396
18,9.080886759369367
2,1, 1, 1, 0,11,30.00,45.00,Tuesday
7,-5.425
8,7172.439532346116
9,1.0
10,742.5988714321785
11,1.0
12,742.5988714321785
13,7172.439532346116
14,10.821094376085862
15,25.65939317216347
16,14.227521093756764
17,0.6769636582462226
18,9.470795770478775
2,1, 1, 1, 0,11,45.00,60.00,Tuesday
7,-5.0
8,7012.474537249442
9,1.0
10,727.8169025450712
11,1.0
12,727.8169025450712
13,7012.474537249442
14,11.085373016491094
15,25.43114232503353
16,14.376685573005716
17,0.955453623802498
18,9.814483240183013
2,1, 1, 1, 0,12, 0.00,15.00,Tuesday
7,-4.575
8,6737.383213522377
9,1.0
10,700.3759009170325
11,1.0
12,700.3759009170325
13,6737.383213522377
14,11.274402345699901
15,24.689189281385496
16,14.379953002123444
17,1.1808249273331058
18,10.109830360866879
2,1, 1, 1, 0,12,15.00,30.00,Tuesday
7,-4.15
8,6533.367409871273
9,1.0
10,681.6705029034473
11,1.0
12,681.6705029034473
13,6533.367409871273
14,11.450250187043551
15,24.35856653042673
16,14.434225894818383
17,1.46653953280088
18,10.368325395128993
2,1, 1, 1, 0,12,30.00,45.00,Tuesday
7,-3.7249999999999998
8,5735.752453838288
9,1.0
10,602.01865277251
11,1.0
12,602.01865277251
13,5735.752453838288
14,11.397203268141926
15,21.331391762427559
16,13.819578116720664
17,1.3117830105305757
18,10.565195155304478
2,1, 1, 1, 0,12,45.00,60.00,Tuesday
7,-3.3
8,4684.461078610567
9,1.0
10,493.55004396206007
11,1.0
12,493.55004396206007
13,4684.461078610567
14,11.20144666383023
15,17.153476829460609
16,12.767122944848439
17,0.9171088736596857
18,10.671249175310452
2,1, 1, 1, 0,13, 0.00,15.00,Tuesday
7,-3.0249999999999996
8,3867.9417682351988
9,1.0
10,412.335026418112
11,1.0
12,412.335026418112
13,3867.9417682351988
14,11.067989835735585
15,14.310286395813757
16,11.916206779636127
17,0.6588324040936868
18,10.704508575550685
2,1, 1, 1, 0,13,15.00,30.00,Tuesday
7,-2.75
8,2832.9112038253649
9,1.0
10,305.94037763660148
11,1.0
12,305.94037763660148
13,2832.9112038253649
14,10.741782772982111
15,10.137871941628655
16,10.680326011748037
17,0.1792305462870445
18,10.676296154321623
2,1, 1, 1, 0,13,30.00,45.00,Tuesday
7,-2.475
8,2586.3476478244808
9,1.0
10,281.0763483922329
11,1.0
12,281.0763483922329
13,2586.3476478244808
14,10.716306147841053
15,9.626612313622337
16,10.384599673949424
17,0.31011572797672218
18,10.628970247706152
2,1, 1, 1, 0,13,45.00,60.00,Tuesday
7,-2.2
8,2344.9203514735729
9,1.0
10,256.7721209415886
11,1.0
12,256.7721209415886
13,2344.9203514735729
14,10.677735991367524
15,9.020170080464247
16,10.186162310570638
17,0.4681952189101253
18,10.588898222428151
2,1, 1, 1, 0,14, 0.00,15.00,Tuesday
7,-1.9250000000000003
8,1915.5614378460905
9,1.0
10,210.73276284570657
11,1.0
12,210.73276284570657
13,1915.5614378460905
14,10.521819301862998
15,7.473785104979676
16,9.699838611685096
17,0.4152369453746019
18,10.551214948085653
2,1, 1, 1, 0,14,15.00,30.00,Tuesday
7,-1.6500000000000002
8,1701.636890462901
9,1.0
10,189.38488290342594
11,1.0
12,189.38488290342594
13,1701.636890462901
14,10.480938380558359
15,7.070056673736872
16,9.4828309524122
17,0.5650123214006158
18,10.516275658506054
2,1, 1, 1, 0,14,30.00,45.00,Tuesday
7,-1.375
8,1622.8800248440066
9,1.0
10,179.3940297802914
11,1.0
12,179.3940297802914
13,1622.8800248440066
14,10.467578834610557
15,7.194937212212091
16,9.447547037309278
17,0.8076790181660272
18,10.48607493632492
2,1, 1, 1, 0,14,45.00,60.00,Tuesday
7,-1.1
8,1543.2234052226525
9,1.0
10,169.43349014176136
11,1.0
12,169.43349014176136
13,1543.2234052226525
14,10.450259624688693
15,7.295283242502624
16,9.405539369548763
17,1.0482870191063967
18,10.460149815579174
2,1, 1, 1, 0,15, 0.00,15.00,Tuesday
7,-1.1
8,1624.3394505603424
9,1.0
10,178.15692317953907
11,1.0
12,178.15692317953907
13,1624.3394505603424
14,10.517435400808666
15,8.115904990568204
16,9.524460611267728
17,1.1846104852837698
18,10.442824615820081
2,1, 1, 1, 0,15,15.00,30.00,Tuesday
7,-1.1
8,1526.0223033702039
9,1.0
10,166.40516310952945
11,1.0
12,166.40516310952945
13,1526.0223033702039
14,10.459858413102014
15,7.752672261175947
16,9.40300851307768
17,1.1448917016166434
18,10.428295957749361
2,1, 1, 1, 0,15,30.00,45.00,Tuesday
7,-1.1
8,1286.7145871122662
9,1.0
10,140.8967369711617
11,1.0
12,140.8967369711617
13,1286.7145871122662
14,10.328873656477289
15,6.5460483739718449
16,9.060735854021005
17,0.9539979967489671
18,10.404794356637892
2,1, 1, 1, 0,15,45.00,60.00,Tuesday
7,-1.1
8,1058.8612402206416
9,1.0
10,116.57355796743004
11,1.0
12,116.57355796743004
13,1058.8612402206416
14,10.206281602686357
15,5.342058622177335
16,8.716584687897126
17,0.7554625261445835
18,10.36096737343996
2,1, 1, 1, 0,16, 0.00,15.00,Tuesday
7,-1.1
8,840.3726933531048
9,1.0
10,93.14939272689483
11,1.0
12,93.14939272689483
13,840.3726933531048
14,10.091090251939674
15,4.294132883756258
16,8.411803559030659
17,0.6434879743236479
18,10.296411541244913
2,1, 1, 1, 0,16,15.00,30.00,Tuesday
7,-1.1
8,521.7048907738913
9,1.0
10,57.94047897402063
11,1.0
12,57.94047897402063
13,521.7048907738913
14,9.880669901088629
15,2.1738421256330739
16,7.938933610310812
17,0.39478458603844049
18,10.206152618356015
2,1, 1, 1, 0,16,30.00,45.00,Tuesday
7,-1.1
8,404.4917082756416
9,1.0
10,45.38251793443488
11,1.0
12,45.38251793443488
13,404.4917082756416
14,9.795738718310599
15,1.5680553546330818
16,7.730855437946616
17,0.37527989618030235
18,10.105234393138974
2,1, 1, 1, 0,16,45.00,60.00,Tuesday
7,-1.1
8,282.362010079345
9,1.0
10,32.02625108222755
11,1.0
12,32.02625108222755
13,282.362010079345
14,9.670758377146355
15,0.7102012618468063
16,7.539321903769746
17,0.3551007819056622
18,10.006390495047619
2,1, 1, 1, 0,17, 0.00,15.00,Tuesday
7,-1.1
8,154.8751670521773
9,1.0
10,17.762198626050539
11,1.0
12,17.762198626050539
13,154.8751670521773
14,9.521685824702184
15,-0.5336314517605539
16,7.293472830691826
17,0.22769648489691009
18,9.90780416238686
2,1, 1, 1, 0,17,15.00,30.00,Tuesday
7,-1.1
8,0.0
9,0.0
10,0.0
11,0.0
12,0.0
13,0.0
14,9.3218717068013
15,-2.367416661862138
16,6.9654467938585189
17,-0.03121966938550713
18,9.796062071149667
2,1, 1, 1, 0,17,30.00,45.00,Tuesday
7,-1.1
8,0.0
9,0.0
10,0.0
11,0.0
12,0.0
13,0.0
14,9.259127187543117
15,-2.4997678456708165
16,6.885575113420657
17,0.00874676081537018
18,9.686942630922053
2,1, 1, 1, 0,17,45.00,60.00,Tuesday
7,-1.1
8,0.0
9,0.0
10,0.0
11,0.0
12,0.0
13,0.0
14,9.179914527427043
15,-2.68465221860614
16,6.845727140300255
17,0.0641841237111862
18,9.59491522016781
2,1, 1, 1, 0,18, 0.00,15.00,Tuesday
7,-1.25
8,0.0
9,0.0
10,0.0
11,0.0
12,0.0
13,0.0
14,9.112180546425059
15,-2.8333019436861406
16,6.748099083451791
17,-0.07288802879111245
18,9.520189258706005
2,1, 1, 1, 0,18,15.00,30.00,Tuesday
7,-1.4
8,0.0
9,0.0
10,0.0
11,0.0
12,0.0
13,0.0
14,9.050023182141566
15,-2.985795910805752
16,6.664242590905417
17,-0.20422473930631214
18,9.456996627209954
2,1, 1, 1, 0,18,30.00,45.00,Tuesday
7,-1.5499999999999999
8,0.0
9,0.0
10,0.0
11,0.0
12,0.0
13,0.0
14,8.992040298353267
15,-3.1379252995668045
16,6.585074649062449
17,-0.3345887236640692
18,9.399778481242543
2,1, 1, 1, 0,18,45.00,60.00,Tuesday
7,-1.7
8,0.0
9,0.0
10,0.0
11,0.0
12,0.0
13,0.0
14,8.935934031989487
15,-3.2902235840955349
16,6.50871095775733
17,-0.46424684706357768
18,9.3452181984879
2,1, 1, 1, 0,19, 0.00,15.00,Tuesday
7,-1.825
8,0.0
9,0.0
10,0.0
11,0.0
12,0.0
13,0.0
14,8.9033663035558
15,-3.152422838895404
16,6.407813242150212
17,-0.668089018473836
18,9.29508061234891
2,1, 1, 1, 0,19,15.00,30.00,Tuesday
7,-1.9500000000000002
8,0.0
9,0.0
10,0.0
11,0.0
12,0.0
13,0.0
14,8.869403812357076
15,-3.0948001554921427
16,6.3237267050157019
17,-0.8567739782855597
18,9.251141358351033
2,1, 1, 1, 0,19,30.00,45.00,Tuesday
7,-2.075
8,0.0
9,0.0
10,0.0
11,0.0
12,0.0
13,0.0
14,8.831411035511096
15,-3.1711219530526986
16,6.263658266135508
17,-0.9844598056889709
18,9.212190866595016
2,1, 1, 1, 0,19,45.00,60.00,Tuesday
7,-2.2
8,0.0
9,0.0
10,0.0
11,0.0
12,0.0
13,0.0
14,8.794979068653232
15,-3.156899803636885
16,6.18367181898293
17,-1.1630552658414218
18,9.175041489181395
2,1, 1, 1, 0,20, 0.00,15.00,Tuesday
7,-1.9250000000000003
8,0.0
9,0.0
10,0.0
11,0.0
12,0.0
13,0.0
14,8.776398801172716
15,-2.8576867758400934
16,6.222204394024516
17,-0.9738717525522702
18,9.140741578952355
2,1, 1, 1, 0,20,15.00,30.00,Tuesday
7,-1.6500000000000002
8,0.0
9,0.0
10,0.0
11,0.0
12,0.0
13,0.0
14,8.757208831186839
15,-2.5613493883233326
16,6.257478475673224
17,-0.7721907212741144
18,9.110016900187329
2,1, 1, 1, 0,20,30.00,45.00,Tuesday
7,-1.375
8,0.0
9,0.0
10,0.0
11,0.0
12,0.0
13,0.0
14,8.740060353483083
15,-2.266154576715217
16,6.2942144143688669
17,-0.56786747188562
18,9.08237047172283
2,1, 1, 1, 0,20,45.00,60.00,Tuesday
7,-1.1
8,0.0
9,0.0
10,0.0
11,0.0
12,0.0
13,0.0
14,8.724593831146342
15,-1.9721445320648708
16,6.333237429837595
17,-0.3609893092384482
18,9.056972375393805
2,1, 1, 1, 0,21, 0.00,15.00,Tuesday
7,-1.25
8,0.0
9,0.0
10,0.0
11,0.0
12,0.0
13,0.0
14,8.670053746810459
15,-2.2451545223372308
16,6.2986400526745
17,-0.39980271335525688
18,9.02704021299838
2,1, 1, 1, 0,21,15.00,30.00,Tuesday
7,-1.4
8,0.0
9,0.0
10,0.0
11,0.0
12,0.0
13,0.0
14,8.61626199211513
15,-2.4573909846099069
16,6.2432586404092949
17,-0.47675132219922036
18,8.98793469529547
2,1, 1, 1, 0,21,30.00,45.00,Tuesday
7,-1.5499999999999999
8,0.0
9,0.0
10,0.0
11,0.0
12,0.0
13,0.0
14,8.54976927386039
15,-2.7908873366809354
16,6.203654004665907
17,-0.500581587895681
18,8.939112644898147
2,1, 1, 1, 0,21,45.00,60.00,Tuesday
7,-1.7
8,0.0
9,0.0
10,0.0
11,0.0
12,0.0
13,0.0
14,8.478076070774906
15,-3.230288174545353
16,6.166930938730957
17,-0.5009527736744985
18,8.883095883987983
2,1, 1, 1, 0,22, 0.00,15.00,Tuesday
7,-1.5499999999999999
8,0.0
9,0.0
10,0.0
11,0.0
12,0.0
13,0.0
14,8.4705957636449
15,-2.7574553544566635
16,6.113194399788142
17,-0.5182215651523165
18,8.832661130863372
2,1, 1, 1, 0,22,15.00,30.00,Tuesday
7,-1.4
8,0.0
9,0.0
10,0.0
11,0.0
12,0.0
13,0.0
14,8.453729621958765
15,-2.4372855995030906
16,6.0995527827797109
17,-0.5071693047881354
18,8.794781831099272
2,1, 1, 1, 0,22,30.00,45.00,Tuesday
7,-1.25
8,0.0
9,0.0
10,0.0
11,0.0
12,0.0
13,0.0
14,8.436353730024795
15,-2.221678384950882
16,6.101030096175236
17,-0.4326225167857274
18,8.767159567601637
2,1, 1, 1, 0,22,45.00,60.00,Tuesday
7,-1.1
8,0.0
9,0.0
10,0.0
11,0.0
12,0.0
13,0.0
14,8.422821251548312
15,-1.9471602965293496
16,6.098969108878123
17,-0.39812332866517866
18,8.744564694183284
2,1, 1, 1, 0,23, 0.00,15.00,Tuesday
7,-1.25
8,0.0
9,0.0
10,0.0
11,0.0
12,0.0
13,0.0
14,8.367173830380122
15,-2.250423981257903
16,5.993283298636015
17,-0.6617141450242912
18,8.716445661734982
2,1, 1, 1, 0,23,15.00,30.00,Tuesday
7,-1.4
8,0.0
9,0.0
10,0.0
11,0.0
12,0.0
13,0.0
14,8.313753111260253
15,-2.555142680096772
16,5.880056391635776
17,-0.9466382429942541
18,8.677941717821506
2,1, 1, 1, 0,23,30.00,45.00,Tuesday
7,-1.5499999999999999
8,0.0
9,0.0
10,0.0
11,0.0
12,0.0
13,0.0
14,8.255428494268019
15,-2.86051002942342
16,5.765016748989012
17,-1.2331419973469907
18,8.630513040185209
2,1, 1, 1, 0,23,45.00,60.00,Tuesday
7,-1.7
8,0.0
9,0.0
10,0.0
11,0.0
12,0.0
13,0.0
14,8.193172424637721
15,-3.1662213269041588
16,5.645881017973352
17,-1.521463806015447
18,8.57730059998804
2,1, 1, 1, 0,24, 0.00,15.00,Tuesday
7,-1.7
8,0.0
9,0.0
10,0.0
11,0.0
12,0.0
13,0.0
14,8.14662070399418
15,-3.220488516911414
16,5.589096537693649
17,-1.58838473725325
18,8.524020091699708
2,1, 1, 1, 0,24,15.00,30.00,Tuesday
7,-1.7
8,0.0
9,0.0
10,0.0
11,0.0
12,0.0
13,0.0
14,8.098080116373904
15,-3.2753013433872297
16,5.536250644890174
17,-1.6518590523942294
18,8.473564401381953
2,1, 1, 1, 0,24,30.00,45.00,Tuesday
7,-1.7
8,0.0
9,0.0
10,0.0
11,0.0
12,0.0
13,0.0
14,8.05076461745348
15,-3.3300055737981886
16,5.483229626524121
17,-1.7154878830571079
18,8.425751706816172
2,1, 1, 1, 0,24,45.00,60.00,Tuesday
7,-1.7
8,0.0
9,0.0
10,0.0
11,0.0
12,0.0
13,0.0
14,8.004330336089238
15,-3.3847140633451815
16,5.43109241215592
17,-1.7790907331412882
18,8.379448847300404
End of Data
 Number of Records Written=        1152
