Program Version,EnergyPlus, Version 9.5.0-de239b2e5f, YMD=2023.02.17 18:12
1,5,Environment Title[],Latitude[deg],Longitude[deg],Time Zone[],Elevation[m]
2,8,Day of Simulation[],Month[],Day of Month[],DST Indicator[1=yes 0=no],Hour[],StartMinute[],EndMinute[],DayType
3,5,Cumulative Day of Simulation[],Month[],Day of Month[],DST Indicator[1=yes 0=no],DayType  ! When Daily Report Variables Requested
4,2,Cumulative Days of Simulation[],Month[]  ! When Monthly Report Variables Requested
5,1,Cumulative Days of Simulation[] ! When Run Period Report Variables Requested
6,1,Calendar Year of Simulation[] ! When Annual Report Variables Requested
7,1,Environment,Site Outdoor Air Drybulb Temperature [C] !TimeStep
8,1,ZONE ONE,Zone Windows Total Transmitted Solar Radiation Rate [W] !TimeStep
9,1,ZN001:WALL001,Surface Outside Face Sunlit Fraction [] !TimeStep
10,1,ZN001:WALL001,Surface Outside Face Incident Solar Radiation Rate per Area [W/m2] !TimeStep
11,1,ZN001:WALL001:WIN001,Surface Outside Face Sunlit Fraction [] !TimeStep
12,1,ZN001:WALL001:WIN001,Surface Outside Face Incident Solar Radiation Rate per Area [W/m2] !TimeStep
13,1,ZN001:WALL001:WIN001,Surface Window Transmitted Solar Radiation Rate [W] !TimeStep
14,1,ZN001:WALL001,Surface Inside Face Temperature [C] !TimeStep
15,1,ZN001:WALL001,Surface Outside Face Temperature [C] !TimeStep
16,1,ZN001:WALL001:WIN001,Surface Inside Face Temperature [C] !TimeStep
17,1,ZN001:WALL001:WIN001,Surface Outside Face Temperature [C] !TimeStep
18,1,ZONE ONE,Zone Mean Air Temperature [C] !TimeStep
End of Data Dictionary
1,RUN PERIOD 1,  41.98, -87.92,  -6.00, 201.00
2,1, 1, 1, 0, 1, 0.00,15.00,Tuesday
7,-4.324999999999999
8,0.0
9,0.0
10,0.0
11,0.0
12,0.0
13,0.0
14,-0.06993975521316132
15,-6.005475911613892
16,-0.9701492824539173
17,-5.648452495323454
18,0.23685440834156427
2,1, 1, 1, 0, 1,15.00,30.00,Tuesday
7,-6.949999999999999
8,0.0
9,0.0
10,0.0
11,0.0
12,0.0
13,0.0
14,-0.23861113543724159
15,-8.47339724594496
16,-1.4762871057880603
17,-7.825756545544323
18,0.16287082421551489
2,1, 1, 1, 0, 1,30.00,45.00,Tuesday
7,-9.575
8,0.0
9,0.0
10,0.0
11,0.0
12,0.0
13,0.0
14,-0.42693776409113096
15,-10.95000949772003
16,-1.981591185383536
17,-10.009924717134027
18,0.056978289931447229
2,1, 1, 1, 0, 1,45.00,60.00,Tuesday
7,-12.2
8,0.0
9,0.0
10,0.0
11,0.0
12,0.0
13,0.0
14,-0.6297911197680288
15,-13.433084267758766
16,-2.500172746047042
17,-12.202614988907613
18,-0.0724548432908666
2,1, 1, 1, 0, 2, 0.00,15.00,Tuesday
7,-12.075
8,0.0
9,0.0
10,0.0
11,0.0
12,0.0
13,0.0
14,-0.6761501940829108
15,-13.234888815675749
16,-2.5749154399136389
17,-12.060474732233275
18,-0.19075357566392335
2,1, 1, 1, 0, 2,15.00,30.00,Tuesday
7,-11.95
8,0.0
9,0.0
10,0.0
11,0.0
12,0.0
13,0.0
14,-0.737976879434692
15,-13.057423904036624
16,-2.599736065845377
17,-11.899515307684397
18,-0.2800079040458921
2,1, 1, 1, 0, 2,30.00,45.00,Tuesday
7,-11.825
8,0.0
9,0.0
10,0.0
11,0.0
12,0.0
13,0.0
14,-0.7840750096328241
15,-12.878779218689172
16,-2.620870466917438
17,-11.737918482562407
18,-0.3433458966230427
2,1, 1, 1, 0, 2,45.00,60.00,Tuesday
7,-11.7
8,0.0
9,0.0
10,0.0
11,0.0
12,0.0
13,0.0
14,-0.8192982820289018
15,-12.700183447472329
16,-2.629715273358329
17,-11.57427685840048
18,-0.3903071427726715
2,1, 1, 1, 0, 3, 0.00,15.00,Tuesday
7,-11.549999999999999
8,0.0
9,0.0
10,0.0
11,0.0
12,0.0
13,0.0
14,-0.8531278488305578
15,-12.576539648668059
16,-2.634400220772477
17,-11.448732161223177
18,-0.42950315666611046
2,1, 1, 1, 0, 3,15.00,30.00,Tuesday
7,-11.399999999999999
8,0.0
9,0.0
10,0.0
11,0.0
12,0.0
13,0.0
14,-0.8824236030091408
15,-12.454361446735995
16,-2.6393563845014116
17,-11.317056354298814
18,-0.46554254178521717
2,1, 1, 1, 0, 3,30.00,45.00,Tuesday
7,-11.25
8,0.0
9,0.0
10,0.0
11,0.0
12,0.0
13,0.0
14,-0.9116346835018097
15,-12.333869749833891
16,-2.642164015860601
17,-11.185039652442697
18,-0.5001520216285321
2,1, 1, 1, 0, 3,45.00,60.00,Tuesday
7,-11.1
8,0.0
9,0.0
10,0.0
11,0.0
12,0.0
13,0.0
14,-0.9401695438747955
15,-12.215049277721186
16,-2.6445662307099839
17,-11.053669471985814
18,-0.5338273372782442
2,1, 1, 1, 0, 4, 0.00,15.00,Tuesday
7,-11.1
8,0.0
9,0.0
10,0.0
11,0.0
12,0.0
13,0.0
14,-0.9729582480065387
15,-12.183058575528463
16,-2.675100041531664
17,-11.054002645416574
18,-0.5672747909373779
2,1, 1, 1, 0, 4,15.00,30.00,Tuesday
7,-11.1
8,0.0
9,0.0
10,0.0
11,0.0
12,0.0
13,0.0
14,-1.003333748821939
15,-12.152266089488844
16,-2.704506466876012
17,-11.058068204297343
18,-0.6006735533624728
2,1, 1, 1, 0, 4,30.00,45.00,Tuesday
7,-11.1
8,0.0
9,0.0
10,0.0
11,0.0
12,0.0
13,0.0
14,-1.0358864217323245
15,-12.12325096127489
16,-2.7327374256950636
17,-11.062835321952833
18,-0.6341555232188684
2,1, 1, 1, 0, 4,45.00,60.00,Tuesday
7,-11.1
8,0.0
9,0.0
10,0.0
11,0.0
12,0.0
13,0.0
14,-1.0662943561318055
15,-12.095718396179473
16,-2.761412892541273
17,-11.06788651833756
18,-0.6675542132235707
2,1, 1, 1, 0, 5, 0.00,15.00,Tuesday
7,-10.975
8,0.0
9,0.0
10,0.0
11,0.0
12,0.0
13,0.0
14,-1.092326594158792
15,-11.973343483130755
16,-2.766265773229634
17,-10.970718284253735
18,-0.7000579343837843
2,1, 1, 1, 0, 5,15.00,30.00,Tuesday
7,-10.85
8,0.0
9,0.0
10,0.0
11,0.0
12,0.0
13,0.0
14,-1.1180298090389312
15,-11.851036130622902
16,-2.7711753276167885
17,-10.866999796064306
18,-0.7312685622157378
2,1, 1, 1, 0, 5,30.00,45.00,Tuesday
7,-10.725
8,0.0
9,0.0
10,0.0
11,0.0
12,0.0
13,0.0
14,-1.142934490266164
15,-11.728718657258633
16,-2.7756529164854557
17,-10.762597523853913
18,-0.7613119381284027
2,1, 1, 1, 0, 5,45.00,60.00,Tuesday
7,-10.6
8,0.0
9,0.0
10,0.0
11,0.0
12,0.0
13,0.0
14,-1.1671194694879226
15,-11.606410720222615
16,-2.7794339143453046
17,-10.658006519488709
18,-0.7904659076232077
2,1, 1, 1, 0, 6, 0.00,15.00,Tuesday
7,-10.6
8,0.0
9,0.0
10,0.0
11,0.0
12,0.0
13,0.0
14,-1.1996381424394634
15,-11.607091158467398
16,-2.805353767927045
17,-10.65663364771143
18,-0.8201922499802526
2,1, 1, 1, 0, 6,15.00,30.00,Tuesday
7,-10.6
8,0.0
9,0.0
10,0.0
11,0.0
12,0.0
13,0.0
14,-1.2296705190208755
15,-11.607635330905522
16,-2.833026326477807
17,-10.659494181517005
18,-0.851090676720923
2,1, 1, 1, 0, 6,30.00,45.00,Tuesday
7,-10.6
8,0.0
9,0.0
10,0.0
11,0.0
12,0.0
13,0.0
14,-1.2623137531028015
15,-11.608292313765299
16,-2.8599458413133904
17,-10.663216556854423
18,-0.8831027648339884
2,1, 1, 1, 0, 6,45.00,60.00,Tuesday
7,-10.6
8,0.0
9,0.0
10,0.0
11,0.0
12,0.0
13,0.0
14,-1.2931600026784767
15,-11.608871003195717
16,-2.8877921519386975
17,-10.667475520601557
18,-0.9156885345286626
2,1, 1, 1, 0, 7, 0.00,15.00,Tuesday
7,-10.6
8,0.0
9,0.0
10,0.0
11,0.0
12,0.0
13,0.0
14,-1.322879461440908
15,-11.5825665114554
16,-2.9148479748823776
17,-10.670622698853322
18,-0.9480997346476645
2,1, 1, 1, 0, 7,15.00,30.00,Tuesday
7,-10.6
8,0.0
9,0.0
10,0.0
11,0.0
12,0.0
13,0.0
14,-1.3526326421769837
15,-11.557580554610953
16,-2.941170798269468
17,-10.673318665642455
18,-0.9799979125170695
2,1, 1, 1, 0, 7,30.00,45.00,Tuesday
7,-10.6
8,0.0
9,0.0
10,0.0
11,0.0
12,0.0
13,0.0
14,-1.3821554671451826
15,-11.533863269525377
16,-2.967339023008094
17,-10.675869421055495
18,-1.0114218785547516
2,1, 1, 1, 0, 7,45.00,60.00,Tuesday
7,-10.6
8,0.0
9,0.0
10,0.0
11,0.0
12,0.0
13,0.0
14,-1.4114190797102555
15,-11.51133401517488
16,-2.9932565660840284
17,-10.678286944399247
18,-1.042503232316597
2,1, 1, 1, 0, 8, 0.00,15.00,Tuesday
7,-10.45
8,0.0
9,0.0
10,0.0
11,0.0
12,0.0
13,0.0
14,-1.4428500680149135
15,-11.464147527715367
16,-3.0103624184908428
17,-10.63947689845213
18,-1.0739673597495807
2,1, 1, 1, 0, 8,15.00,30.00,Tuesday
7,-10.3
8,43.92919895502562
9,1.0
10,22.819555959623899
11,1.0
12,22.819555959623899
13,43.92919895502562
14,-1.3745750735780036
15,-9.791646248795445
16,-2.6138276818838905
17,-10.277623044345717
18,-1.0928469518648363
2,1, 1, 1, 0, 8,30.00,45.00,Tuesday
7,-10.15
8,217.30754917639187
9,1.0
10,109.75755355442667
11,1.0
12,109.75755355442667
13,217.30754917639187
14,-1.0386595658249185
15,-3.4376742604685854
16,-0.9103504971587313
17,-8.9506900000207
18,-1.065432081558416
2,1, 1, 1, 0, 8,45.00,60.00,Tuesday
7,-10.0
8,399.4699535945363
9,1.0
10,195.8764694434918
11,1.0
12,195.8764694434918
13,399.4699535945363
14,-0.6217403578005427
15,3.061718621193612
16,0.7665687938941801
17,-7.656556647409332
18,-0.9840770051489848
2,1, 1, 1, 0, 9, 0.00,15.00,Tuesday
7,-9.725
8,585.1489314874541
9,1.0
10,278.97248314719988
11,1.0
12,278.97248314719988
13,585.1489314874541
14,-0.3214637606755034
15,8.240507997498167
16,2.2761992432887157
17,-6.516398354663238
18,-0.85580238167152
2,1, 1, 1, 0, 9,15.00,30.00,Tuesday
7,-9.45
8,784.787199245388
9,1.0
10,364.91995730569456
11,1.0
12,364.91995730569456
13,784.787199245388
14,0.02741187284831028
15,13.323060173482528
16,3.7837967278165935
17,-5.38816841620735
18,-0.6911554566345232
2,1, 1, 1, 0, 9,30.00,45.00,Tuesday
7,-9.175
8,921.7412871041541
9,1.0
10,420.35879993239237
11,1.0
12,420.35879993239237
13,921.7412871041541
14,0.24963153419626916
15,16.083282550229606
16,4.789125854738472
17,-4.6967927020655229
18,-0.507540135052447
2,1, 1, 1, 0, 9,45.00,60.00,Tuesday
7,-8.9
8,1065.0474005418728
9,1.0
10,478.00138373643099
11,1.0
12,478.00138373643099
13,1065.0474005418728
14,0.518453108304563
15,19.07923884910618
16,5.793929347071526
17,-3.9767889955166995
18,-0.3113240795880389
2,1, 1, 1, 0,10, 0.00,15.00,Tuesday
7,-8.350000000000002
8,1212.3134782022194
9,1.0
10,536.9185644770597
11,1.0
12,536.9185644770597
13,1212.3134782022194
14,0.7242978524096411
15,20.201416575256507
16,6.832871653407324
17,-3.178201655119892
18,-0.1008325284368
2,1, 1, 1, 0,10,15.00,30.00,Tuesday
7,-7.800000000000001
8,1365.083720287943
9,1.0
10,598.0969199229219
11,1.0
12,598.0969199229219
13,1365.083720287943
14,0.9528031255066999
15,21.457897061720769
16,7.89547835637336
17,-2.398001176853427
18,0.12041718842715661
2,1, 1, 1, 0,10,30.00,45.00,Tuesday
7,-7.25
8,1468.1999493442264
9,1.0
10,637.6133352894237
11,1.0
12,637.6133352894237
13,1468.1999493442264
14,1.1158167173263585
15,21.520742395591694
16,8.641684727055975
17,-1.868359420342017
18,0.3392549209586596
2,1, 1, 1, 0,10,45.00,60.00,Tuesday
7,-6.7
8,1569.705828175432
9,1.0
10,676.6412284283772
11,1.0
12,676.6412284283772
13,1569.705828175432
14,1.292026555028779
15,21.68342751888359
16,9.359438267670669
17,-1.3319745842397879
18,0.5483946976116522
2,1, 1, 1, 0,11, 0.00,15.00,Tuesday
7,-6.275
8,1669.2149873773784
9,1.0
10,715.0112779846514
11,1.0
12,715.0112779846514
13,1669.2149873773784
14,1.5454817178080025
15,23.780478764283417
16,10.09389219977578
17,-0.5786528711224719
18,0.7516123639698098
2,1, 1, 1, 0,11,15.00,30.00,Tuesday
7,-5.85
8,1766.190944948854
9,1.0
10,752.5077794605232
11,1.0
12,752.5077794605232
13,1766.190944948854
14,1.7832010092007316
15,25.71505371487589
16,10.815446709592834
17,0.14961066302225846
18,0.9536390501999255
2,1, 1, 1, 0,11,30.00,45.00,Tuesday
7,-5.425
8,1740.4832380327117
9,1.0
10,742.5988714321785
11,1.0
12,742.5988714321785
13,1740.4832380327117
14,1.9075143538367184
15,25.566668975234216
16,10.871317635907986
17,0.43413322286801306
18,1.1408312829232186
2,1, 1, 1, 0,11,45.00,60.00,Tuesday
7,-5.0
8,1702.0518597121073
9,1.0
10,727.8169025450712
11,1.0
12,727.8169025450712
13,1702.0518597121073
14,2.0286330364041476
15,25.336772654216806
16,10.834112341532432
17,0.6832118173546178
18,1.3041775345360285
2,1, 1, 1, 0,12, 0.00,15.00,Tuesday
7,-4.575
8,1635.6982778457269
9,1.0
10,700.3759009170325
11,1.0
12,700.3759009170325
13,1635.6982778457269
14,2.1057374190195179
15,24.593611712049268
16,10.619886740101265
17,0.8632735984572264
18,1.4400072050462705
2,1, 1, 1, 0,12,15.00,30.00,Tuesday
7,-4.15
8,1584.1822507707826
9,1.0
10,681.6705029034473
11,1.0
12,681.6705029034473
13,1584.1822507707826
14,2.1997778596602179
15,24.262593839435039
16,10.509621427197658
17,1.1193963784145354
18,1.5546027567601555
2,1, 1, 1, 0,12,30.00,45.00,Tuesday
7,-3.7249999999999998
8,1386.7884648429923
9,1.0
10,602.01865277251
11,1.0
12,602.01865277251
13,1386.7884648429923
14,2.105760826122253
15,21.233999398343543
16,9.541547642952992
17,0.8403481950191463
18,1.6333543085649336
2,1, 1, 1, 0,12,45.00,60.00,Tuesday
7,-3.3
8,1130.2896420139664
9,1.0
10,493.55004396206007
11,1.0
12,493.55004396206007
13,1130.2896420139664
14,1.9309241280031353
15,17.05487623343285
16,8.087336235552698
17,0.28798270282999285
18,1.6610877501743682
2,1, 1, 1, 0,13, 0.00,15.00,Tuesday
7,-3.0249999999999996
8,926.9697700398867
9,1.0
10,412.335026418112
11,1.0
12,412.335026418112
13,926.9697700398867
14,1.8154897495314735
15,14.209444681437168
16,6.951783730755551
17,-0.09506097664404934
18,1.6445678876236599
2,1, 1, 1, 0,13,15.00,30.00,Tuesday
7,-2.75
8,673.6692877186736
9,1.0
10,305.94037763660148
11,1.0
12,305.94037763660148
13,673.6692877186736
14,1.5884215725480302
15,10.035252356502394
16,5.40295384813578
17,-0.7287288969131396
18,1.5880947589235508
2,1, 1, 1, 0,13,30.00,45.00,Tuesday
7,-2.475
8,612.4821658219637
9,1.0
10,281.0763483922329
11,1.0
12,281.0763483922329
13,612.4821658219637
14,1.5640058452220927
15,9.518009906182206
16,5.043063269586071
17,-0.6289425137172202
18,1.5243391107881895
2,1, 1, 1, 0,13,45.00,60.00,Tuesday
7,-2.2
8,552.552520277972
9,1.0
10,256.7721209415886
11,1.0
12,256.7721209415886
13,552.552520277972
14,1.537012551510626
15,8.914420749247375
16,4.721803340079418
17,-0.5077853582746457
18,1.4736884503470283
2,1, 1, 1, 0,14, 0.00,15.00,Tuesday
7,-1.9250000000000003
8,449.8411357962977
9,1.0
10,210.73276284570657
11,1.0
12,210.73276284570657
13,449.8411357962977
14,1.4464949694885417
15,7.364902040639194
16,4.044021145600141
17,-0.6387054337744758
18,1.4313493413867356
2,1, 1, 1, 0,14,15.00,30.00,Tuesday
7,-1.6500000000000002
8,396.7537665575463
9,1.0
10,189.38488290342594
11,1.0
12,189.38488290342594
13,396.7537665575463
14,1.4263881849556415
15,6.957250044859023
16,3.7365995056239287
17,-0.5459237100660062
18,1.396395988084208
2,1, 1, 1, 0,14,30.00,45.00,Tuesday
7,-1.375
8,379.3266897359249
9,1.0
10,179.3940297802914
11,1.0
12,179.3940297802914
13,379.3266897359249
14,1.4329306626668704
15,7.07704274097258
16,3.632447863900609
17,-0.3349948965145586
18,1.3700635829637953
2,1, 1, 1, 0,14,45.00,60.00,Tuesday
7,-1.1
8,361.3465167603399
9,1.0
10,169.43349014176136
11,1.0
12,169.43349014176136
13,361.3465167603399
14,1.4360667227254145
15,7.173336122079959
16,3.527929817997972
17,-0.12561940292960117
18,1.3515688526692278
2,1, 1, 1, 0,15, 0.00,15.00,Tuesday
7,-1.1
8,379.75098608822659
9,1.0
10,178.15692317953907
11,1.0
12,178.15692317953907
13,379.75098608822659
14,1.4797553142667577
15,7.986802066033571
16,3.6756223844051876
17,0.0008831669060782588
18,1.3427996048841764
2,1, 1, 1, 0,15,15.00,30.00,Tuesday
7,-1.1
8,356.65544888641286
9,1.0
10,166.40516310952945
11,1.0
12,166.40516310952945
13,356.65544888641286
14,1.4501060322911044
15,7.62277882428156
16,3.4927647740396425
17,-0.09091145721339444
18,1.337562447033773
2,1, 1, 1, 0,15,30.00,45.00,Tuesday
7,-1.1
8,299.30897077907687
9,1.0
10,140.8967369711617
11,1.0
12,140.8967369711617
13,299.30897077907687
14,1.372325454026155
15,6.414231556299394
16,3.0577645887598239
17,-0.3644577071476647
18,1.324381196521143
2,1, 1, 1, 0,15,45.00,60.00,Tuesday
7,-1.1
8,245.01101588106585
9,1.0
10,116.57355796743004
11,1.0
12,116.57355796743004
13,245.01101588106585
14,1.2883882757391446
15,5.201438259633646
16,2.6228120335400719
17,-0.653352484615425
18,1.297637977419627
2,1, 1, 1, 0,16, 0.00,15.00,Tuesday
7,-1.1
8,193.3619366811613
9,1.0
10,93.14939272689483
11,1.0
12,93.14939272689483
13,193.3619366811613
14,1.2036327552735125
15,4.139028121936458
16,2.20249689319121
17,-0.884742807348232
18,1.2587491296742362
2,1, 1, 1, 0,16,15.00,30.00,Tuesday
7,-1.1
8,119.36636342751545
9,1.0
10,57.94047897402063
11,1.0
12,57.94047897402063
13,119.36636342751545
14,1.0561927599436172
15,2.0084894610254988
16,1.5368758481225769
17,-1.318040297238781
18,1.2053294058429452
2,1, 1, 1, 0,16,30.00,45.00,Tuesday
7,-1.1
8,91.9639739168048
9,1.0
10,45.38251793443488
11,1.0
12,45.38251793443488
13,91.9639739168048
14,1.0044939148199535
15,1.3887945872828834
16,1.2526465027780205
17,-1.4583193561548456
18,1.144612100971118
2,1, 1, 1, 0,16,45.00,60.00,Tuesday
7,-1.1
8,63.83988587375654
9,1.0
10,32.02625108222755
11,1.0
12,32.02625108222755
13,63.83988587375654
14,0.9220731410701243
15,0.5132708690242862
16,0.9517923984506069
17,-1.6285258068646727
18,1.0826108132287043
2,1, 1, 1, 0,17, 0.00,15.00,Tuesday
7,-1.1
8,34.880124245395318
9,1.0
10,17.762198626050539
11,1.0
12,17.762198626050539
13,34.880124245395318
14,0.8119670731175674
15,-0.7545896471115671
16,0.6158055858433045
17,-1.9263193777084667
18,1.0167531650596305
2,1, 1, 1, 0,17,15.00,30.00,Tuesday
7,-1.1
8,0.0
9,0.0
10,0.0
11,0.0
12,0.0
13,0.0
14,0.6556407711041815
15,-2.598659939507953
16,0.21948052778918737
17,-2.2401949322562588
18,0.9368930567603606
2,1, 1, 1, 0,17,30.00,45.00,Tuesday
7,-1.1
8,0.0
9,0.0
10,0.0
11,0.0
12,0.0
13,0.0
14,0.6179923539278558
15,-2.7413361519448489
16,0.13096860676716916
17,-2.32271170836475
18,0.8525745753173618
2,1, 1, 1, 0,17,45.00,60.00,Tuesday
7,-1.1
8,0.0
9,0.0
10,0.0
11,0.0
12,0.0
13,0.0
14,0.5631388764892179
15,-2.945479654423274
16,0.07560149071434808
17,-2.4139018696567975
18,0.7769892207579339
2,1, 1, 1, 0,18, 0.00,15.00,Tuesday
7,-1.25
8,0.0
9,0.0
10,0.0
11,0.0
12,0.0
13,0.0
14,0.5189262656762259
15,-3.091628189914469
16,0.005434249810377878
17,-2.558997358124884
18,0.7156984715995557
2,1, 1, 1, 0,18,15.00,30.00,Tuesday
7,-1.4
8,0.0
9,0.0
10,0.0
11,0.0
12,0.0
13,0.0
14,0.4795824638015843
15,-3.2440161213884495
16,-0.051365923065020527
17,-2.689576027724854
18,0.6673501199894177
2,1, 1, 1, 0,18,30.00,45.00,Tuesday
7,-1.5499999999999999
8,0.0
9,0.0
10,0.0
11,0.0
12,0.0
13,0.0
14,0.4435518596469809
15,-3.3957249955092005
16,-0.10690002338321847
17,-2.8253785201927714
18,0.6279867781177679
2,1, 1, 1, 0,18,45.00,60.00,Tuesday
7,-1.7
8,0.0
9,0.0
10,0.0
11,0.0
12,0.0
13,0.0
14,0.41035730773426096
15,-3.547488774957738
16,-0.1593548425192921
17,-2.960363472971153
18,0.5940657022611328
2,1, 1, 1, 0,19, 0.00,15.00,Tuesday
7,-1.825
8,0.0
9,0.0
10,0.0
11,0.0
12,0.0
13,0.0
14,0.4069171579661015
15,-3.379977388830926
16,-0.17963652203422954
17,-2.955187005896164
18,0.5671507676539512
2,1, 1, 1, 0,19,15.00,30.00,Tuesday
7,-1.9500000000000002
8,0.0
9,0.0
10,0.0
11,0.0
12,0.0
13,0.0
14,0.40258193844026787
15,-3.2962223654019087
16,-0.19381906552496276
17,-2.9641958768240217
18,0.5484785249001761
2,1, 1, 1, 0,19,30.00,45.00,Tuesday
7,-2.075
8,0.0
9,0.0
10,0.0
11,0.0
12,0.0
13,0.0
14,0.39350575665303058
15,-3.365350211196494
16,-0.21708458863406578
17,-3.0459212136944417
18,0.5362083502005832
2,1, 1, 1, 0,19,45.00,60.00,Tuesday
7,-2.2
8,0.0
9,0.0
10,0.0
11,0.0
12,0.0
13,0.0
14,0.3868842313284893
15,-3.328054544990696
16,-0.22756163928369234
17,-3.078135376298178
18,0.5272867242193701
2,1, 1, 1, 0,20, 0.00,15.00,Tuesday
7,-1.9250000000000003
8,0.0
9,0.0
10,0.0
11,0.0
12,0.0
13,0.0
14,0.3961006428125391
15,-3.0229966221225976
16,-0.17753385964874725
17,-2.822892462046468
18,0.5211186376472924
2,1, 1, 1, 0,20,15.00,30.00,Tuesday
7,-1.6500000000000002
8,0.0
9,0.0
10,0.0
11,0.0
12,0.0
13,0.0
14,0.40699878206973985
15,-2.721355955308404
16,-0.12562689278991003
17,-2.5649230113857586
18,0.5178090107273949
2,1, 1, 1, 0,20,30.00,45.00,Tuesday
7,-1.375
8,0.0
9,0.0
10,0.0
11,0.0
12,0.0
13,0.0
14,0.4192428210944681
15,-2.4212098763357319
16,-0.07185361832989656
17,-2.306183138091228
18,0.5170797050248123
2,1, 1, 1, 0,20,45.00,60.00,Tuesday
7,-1.1
8,0.0
9,0.0
10,0.0
11,0.0
12,0.0
13,0.0
14,0.43285180779655477
15,-2.1224858782772899
16,-0.016551062226881187
17,-2.0467812086362757
18,0.5184116246276523
2,1, 1, 1, 0,21, 0.00,15.00,Tuesday
7,-1.25
8,0.0
9,0.0
10,0.0
11,0.0
12,0.0
13,0.0
14,0.40123818670290387
15,-2.419295037502992
16,-0.062422319014217467
17,-2.2555891816491
18,0.5162676705965157
2,1, 1, 1, 0,21,15.00,30.00,Tuesday
7,-1.4
8,0.0
9,0.0
10,0.0
11,0.0
12,0.0
13,0.0
14,0.3667916803746112
15,-2.644083589348249
16,-0.11334148297123648
17,-2.4132075571000088
18,0.5057085115794326
2,1, 1, 1, 0,21,30.00,45.00,Tuesday
7,-1.5499999999999999
8,0.0
9,0.0
10,0.0
11,0.0
12,0.0
13,0.0
14,0.31946575806572
15,-3.008583688209774
16,-0.17991273335098868
17,-2.6482349407174867
18,0.4847051361170018
2,1, 1, 1, 0,21,45.00,60.00,Tuesday
7,-1.7
8,0.0
9,0.0
10,0.0
11,0.0
12,0.0
13,0.0
14,0.267131297170698
15,-3.4833972813241655
16,-0.26218380903162599
17,-2.9091978673678797
18,0.4544000273379814
2,1, 1, 1, 0,22, 0.00,15.00,Tuesday
7,-1.5499999999999999
8,0.0
9,0.0
10,0.0
11,0.0
12,0.0
13,0.0
14,0.2918716447729591
15,-2.9684631276216084
16,-0.2316849338475322
17,-2.633420029062165
18,0.4282141799844382
2,1, 1, 1, 0,22,15.00,30.00,Tuesday
7,-1.4
8,0.0
9,0.0
10,0.0
11,0.0
12,0.0
13,0.0
14,0.3082954752309628
15,-2.619733696501317
16,-0.18330910104248233
17,-2.4091548037132499
18,0.4142290154300678
2,1, 1, 1, 0,22,30.00,45.00,Tuesday
7,-1.25
8,0.0
9,0.0
10,0.0
11,0.0
12,0.0
13,0.0
14,0.32156461016855678
15,-2.3912959950640264
16,-0.14281731682410737
17,-2.2483774673075915
18,0.41116774198542535
2,1, 1, 1, 0,22,45.00,60.00,Tuesday
7,-1.1
8,0.0
9,0.0
10,0.0
11,0.0
12,0.0
13,0.0
14,0.3373934395250404
15,-2.0937046140633819
16,-0.09465350746592094
17,-2.0262468032083236
18,0.4143297728912089
2,1, 1, 1, 0,23, 0.00,15.00,Tuesday
7,-1.25
8,0.0
9,0.0
10,0.0
11,0.0
12,0.0
13,0.0
14,0.3065209828848558
15,-2.397700635397287
16,-0.15690964602481473
17,-2.320238462193288
18,0.414793342954001
2,1, 1, 1, 0,23,15.00,30.00,Tuesday
7,-1.4
8,0.0
9,0.0
10,0.0
11,0.0
12,0.0
13,0.0
14,0.2748611620769136
15,-2.7022791579485228
16,-0.23399361395809138
17,-2.620198532497227
18,0.40689633519952919
2,1, 1, 1, 0,23,30.00,45.00,Tuesday
7,-1.5499999999999999
8,0.0
9,0.0
10,0.0
11,0.0
12,0.0
13,0.0
14,0.24060781661613829
15,-3.0072843295271465
16,-0.3126495115780017
17,-2.920132316072795
18,0.39028853289419976
2,1, 1, 1, 0,23,45.00,60.00,Tuesday
7,-1.7
8,0.0
9,0.0
10,0.0
11,0.0
12,0.0
13,0.0
14,0.20206531909551826
15,-3.31266864858007
16,-0.3939914882796529
17,-3.220305486262191
18,0.36686744466851348
2,1, 1, 1, 0,24, 0.00,15.00,Tuesday
7,-1.7
8,0.0
9,0.0
10,0.0
11,0.0
12,0.0
13,0.0
14,0.1829982678742258
15,-3.366122499536749
16,-0.42726204432858597
17,-3.2776052554572745
18,0.3415617769130376
2,1, 1, 1, 0,24,15.00,30.00,Tuesday
7,-1.7
8,0.0
9,0.0
10,0.0
11,0.0
12,0.0
13,0.0
14,0.16080079013341465
15,-3.4205293832481176
16,-0.45527515117635178
17,-3.336110262216266
18,0.3175618695099469
2,1, 1, 1, 0,24,30.00,45.00,Tuesday
7,-1.7
8,0.0
9,0.0
10,0.0
11,0.0
12,0.0
13,0.0
14,0.13902780911964816
15,-3.4748007430924714
16,-0.4841152969011091
17,-3.394933689548566
18,0.2954146703018483
2,1, 1, 1, 0,24,45.00,60.00,Tuesday
7,-1.7
8,0.0
9,0.0
10,0.0
11,0.0
12,0.0
13,0.0
14,0.11772261001979737
15,-3.5290689816301654
16,-0.512467999240414
17,-3.4536249795300479
18,0.2745480652128798
End of Data
 Number of Records Written=        1152
