Program Version,EnergyPlus, Version 9.5.0-de239b2e5f, YMD=2023.02.16 21:09
1,5,Environment Title[],Latitude[deg],Longitude[deg],Time Zone[],Elevation[m]
2,8,Day of Simulation[],Month[],Day of Month[],DST Indicator[1=yes 0=no],Hour[],StartMinute[],EndMinute[],DayType
3,5,Cumulative Day of Simulation[],Month[],Day of Month[],DST Indicator[1=yes 0=no],DayType  ! When Daily Report Variables Requested
4,2,Cumulative Days of Simulation[],Month[]  ! When Monthly Report Variables Requested
5,1,Cumulative Days of Simulation[] ! When Run Period Report Variables Requested
6,1,Calendar Year of Simulation[] ! When Annual Report Variables Requested
7,1,Environment,Site Outdoor Air Drybulb Temperature [C] !TimeStep
8,1,ZONE ONE,Zone Windows Total Transmitted Solar Radiation Rate [W] !TimeStep
9,1,ZN001:WALL001,Surface Outside Face Sunlit Fraction [] !TimeStep
10,1,ZN001:WALL001,Surface Outside Face Incident Solar Radiation Rate per Area [W/m2] !TimeStep
11,1,ZN001:WALL001:WIN001,Surface Outside Face Sunlit Fraction [] !TimeStep
12,1,ZN001:WALL001:WIN001,Surface Outside Face Incident Solar Radiation Rate per Area [W/m2] !TimeStep
13,1,ZN001:WALL001:WIN001,Surface Window Transmitted Solar Radiation Rate [W] !TimeStep
14,1,ZN001:WALL001,Surface Inside Face Temperature [C] !TimeStep
15,1,ZN001:WALL001,Surface Outside Face Temperature [C] !TimeStep
16,1,ZN001:WALL001:WIN001,Surface Inside Face Temperature [C] !TimeStep
17,1,ZN001:WALL001:WIN001,Surface Outside Face Temperature [C] !TimeStep
18,1,ZONE ONE,Zone Mean Air Temperature [C] !TimeStep
End of Data Dictionary
1,RUN PERIOD 1,  41.98, -87.92,  -6.00, 201.00
2,1, 1, 1, 0, 1, 0.00,15.00,Tuesday
7,-4.324999999999999
8,0.0
9,0.0
10,0.0
11,0.0
12,0.0
13,0.0
14,5.970607274634683
15,-5.89525101409925
16,2.399373439768283
17,-3.4307032741182867
18,6.412826384816886
2,1, 1, 1, 0, 1,15.00,30.00,Tuesday
7,-6.949999999999999
8,0.0
9,0.0
10,0.0
11,0.0
12,0.0
13,0.0
14,5.780686789846855
15,-8.362784419953643
16,1.5692254381011708
17,-5.345732350035519
18,6.303531376334983
2,1, 1, 1, 0, 1,30.00,45.00,Tuesday
7,-9.575
8,0.0
9,0.0
10,0.0
11,0.0
12,0.0
13,0.0
14,5.5683726885519
15,-10.838425454133122
16,0.732478974849414
17,-7.266791062459902
18,6.159030897234562
2,1, 1, 1, 0, 1,45.00,60.00,Tuesday
7,-12.2
8,0.0
9,0.0
10,0.0
11,0.0
12,0.0
13,0.0
14,5.338494452087772
15,-13.320699951949994
16,-0.1191086100634493
17,-9.196315601821312
18,5.990447156190727
2,1, 1, 1, 0, 2, 0.00,15.00,Tuesday
7,-12.075
8,0.0
9,0.0
10,0.0
11,0.0
12,0.0
13,0.0
14,5.260946531116633
15,-13.121855269665322
16,-0.15430011360774643
17,-9.060169159501584
18,5.839970686086989
2,1, 1, 1, 0, 2,15.00,30.00,Tuesday
7,-11.95
8,0.0
9,0.0
10,0.0
11,0.0
12,0.0
13,0.0
14,5.1704630632042829
15,-12.944926742532147
16,-0.167178149441213
17,-8.950094833562219
18,5.725783891202885
2,1, 1, 1, 0, 2,30.00,45.00,Tuesday
7,-11.825
8,0.0
9,0.0
10,0.0
11,0.0
12,0.0
13,0.0
14,5.099176135342741
15,-12.766760006444285
16,-0.17677925542477625
17,-8.829857320476834
18,5.641089218804339
2,1, 1, 1, 0, 2,45.00,60.00,Tuesday
7,-11.7
8,0.0
9,0.0
10,0.0
11,0.0
12,0.0
13,0.0
14,5.040213612653513
15,-12.588679839727855
16,-0.1742863771030443
17,-8.704139731723103
18,5.573243810999523
2,1, 1, 1, 0, 3, 0.00,15.00,Tuesday
7,-11.549999999999999
8,0.0
9,0.0
10,0.0
11,0.0
12,0.0
13,0.0
14,4.983504212652323
15,-12.462470743882545
16,-0.15656106664869186
17,-8.559725060064807
18,5.512522848235356
2,1, 1, 1, 0, 3,15.00,30.00,Tuesday
7,-11.399999999999999
8,0.0
9,0.0
10,0.0
11,0.0
12,0.0
13,0.0
14,4.9301963486273119
15,-12.337627058515926
16,-0.13736133010831964
17,-8.4141986366227
18,5.454272612719595
2,1, 1, 1, 0, 3,30.00,45.00,Tuesday
7,-11.25
8,0.0
9,0.0
10,0.0
11,0.0
12,0.0
13,0.0
14,4.877898326124606
15,-12.214301212513292
16,-0.1165739555861478
17,-8.268312074529206
18,5.39717037138586
2,1, 1, 1, 0, 3,45.00,60.00,Tuesday
7,-11.1
8,0.0
9,0.0
10,0.0
11,0.0
12,0.0
13,0.0
14,4.8262351818315729
15,-12.092547880994774
16,-0.09516521058031913
17,-8.122576941001285
18,5.341052971298846
2,1, 1, 1, 0, 4, 0.00,15.00,Tuesday
7,-11.1
8,0.0
9,0.0
10,0.0
11,0.0
12,0.0
13,0.0
14,4.7703785635161959
15,-12.064510705723079
16,-0.16413263688946246
17,-8.170946925687077
18,5.284401973488717
2,1, 1, 1, 0, 4,15.00,30.00,Tuesday
7,-11.1
8,0.0
9,0.0
10,0.0
11,0.0
12,0.0
13,0.0
14,4.7148532940261049
15,-12.037569366095724
16,-0.22391371427977448
17,-8.22611417094231
18,5.226731111972412
2,1, 1, 1, 0, 4,30.00,45.00,Tuesday
7,-11.1
8,0.0
9,0.0
10,0.0
11,0.0
12,0.0
13,0.0
14,4.658906986926564
15,-12.012147605104698
16,-0.2823420519996489
17,-8.281293234311989
18,5.168357561325544
2,1, 1, 1, 0, 4,45.00,60.00,Tuesday
7,-11.1
8,0.0
9,0.0
10,0.0
11,0.0
12,0.0
13,0.0
14,4.602743441070722
15,-11.988109054137283
16,-0.3403702469848895
17,-8.335450365692282
18,5.109716681867764
2,1, 1, 1, 0, 5, 0.00,15.00,Tuesday
7,-10.975
8,0.0
9,0.0
10,0.0
11,0.0
12,0.0
13,0.0
14,4.552497274921669
15,-11.86625528649028
16,-0.3389130458959926
17,-8.263397926011522
18,5.05248089236522
2,1, 1, 1, 0, 5,15.00,30.00,Tuesday
7,-10.85
8,0.0
9,0.0
10,0.0
11,0.0
12,0.0
13,0.0
14,4.502580236698003
15,-11.74446258910641
16,-0.34101302227475119
17,-8.18365108526848
18,4.997263520314942
2,1, 1, 1, 0, 5,30.00,45.00,Tuesday
7,-10.725
8,0.0
9,0.0
10,0.0
11,0.0
12,0.0
13,0.0
14,4.453901034948196
15,-11.622641922462434
16,-0.343047849819925
17,-8.102717496179708
18,4.943734347779239
2,1, 1, 1, 0, 5,45.00,60.00,Tuesday
7,-10.6
8,0.0
9,0.0
10,0.0
11,0.0
12,0.0
13,0.0
14,4.406236454874381
15,-11.500829476798098
16,-0.3442625713235543
17,-8.021353100872148
18,4.891385540423892
2,1, 1, 1, 0, 6, 0.00,15.00,Tuesday
7,-10.6
8,0.0
9,0.0
10,0.0
11,0.0
12,0.0
13,0.0
14,4.351482731538532
15,-11.50189944300883
16,-0.3866625516531599
17,-8.028345982074484
18,4.838354387351203
2,1, 1, 1, 0, 6,15.00,30.00,Tuesday
7,-10.6
8,0.0
9,0.0
10,0.0
11,0.0
12,0.0
13,0.0
14,4.297379191345162
15,-11.50291501778443
16,-0.4271956733670663
17,-8.041023032732256
18,4.7838578319792079
2,1, 1, 1, 0, 6,30.00,45.00,Tuesday
7,-10.6
8,0.0
9,0.0
10,0.0
11,0.0
12,0.0
13,0.0
14,4.24270002212013
15,-11.503974547705019
16,-0.46740218244815426
17,-8.054382159349985
18,4.7282320882803658
2,1, 1, 1, 0, 6,45.00,60.00,Tuesday
7,-10.6
8,0.0
9,0.0
10,0.0
11,0.0
12,0.0
13,0.0
14,4.187696964437524
15,-11.505031289486665
16,-0.5079258895005978
17,-8.067971211807049
18,4.672063638627805
2,1, 1, 1, 0, 7, 0.00,15.00,Tuesday
7,-10.6
8,0.0
9,0.0
10,0.0
11,0.0
12,0.0
13,0.0
14,4.134562933838355
15,-11.481840031083632
16,-0.5645548553789013
17,-8.115187809359498
18,4.615917114380103
2,1, 1, 1, 0, 7,15.00,30.00,Tuesday
7,-10.6
8,0.0
9,0.0
10,0.0
11,0.0
12,0.0
13,0.0
14,4.081286066888326
15,-11.459856575376956
16,-0.6185078211146333
17,-8.162859294691657
18,4.560116772274948
2,1, 1, 1, 0, 7,30.00,45.00,Tuesday
7,-10.6
8,0.0
9,0.0
10,0.0
11,0.0
12,0.0
13,0.0
14,4.028247542288679
15,-11.438992641985534
16,-0.6716867034565439
17,-8.20960456899843
18,4.504694230291415
2,1, 1, 1, 0, 7,45.00,60.00,Tuesday
7,-10.6
8,0.0
9,0.0
10,0.0
11,0.0
12,0.0
13,0.0
14,3.9754775114391949
15,-11.41918083132813
16,-0.7241693319678575
17,-8.255150479849477
18,4.449591651577709
2,1, 1, 1, 0, 8, 0.00,15.00,Tuesday
7,-10.45
8,0.0
9,0.0
10,0.0
11,0.0
12,0.0
13,0.0
14,3.922452035928374
15,-11.370089132841372
16,-0.7280756216079567
17,-8.198895855848605
18,4.394874549906783
2,1, 1, 1, 0, 8,15.00,30.00,Tuesday
7,-10.3
8,181.53280301124716
9,1.0
10,22.819555959623899
11,1.0
12,22.819555959623899
13,181.53280301124716
14,3.9964906600995095
15,-9.69627898013791
16,-0.41414667611655889
17,-7.8501844219434819
18,4.360004383650637
2,1, 1, 1, 0, 8,30.00,45.00,Tuesday
7,-10.15
8,891.3278823594253
9,1.0
10,109.75755355442667
11,1.0
12,109.75755355442667
13,891.3278823594253
14,4.419219185628919
15,-3.3248450624422345
16,0.8656406908182248
17,-6.68678176822857
18,4.39915116114736
2,1, 1, 1, 0, 8,45.00,60.00,Tuesday
7,-10.0
8,1620.7840671873826
9,1.0
10,195.8764694434918
11,1.0
12,195.8764694434918
13,1620.7840671873826
14,4.974003383645066
15,3.1679253596486407
16,2.2386882751615078
17,-5.501077955496328
18,4.518832406413297
2,1, 1, 1, 0, 9, 0.00,15.00,Tuesday
7,-9.725
8,2347.727724178928
9,1.0
10,278.97248314719988
11,1.0
12,278.97248314719988
13,2347.727724178928
14,5.3868422398854689
15,8.331415205272747
16,3.5926380208605339
17,-4.449654811780931
18,4.697366277440259
2,1, 1, 1, 0, 9,15.00,30.00,Tuesday
7,-9.45
8,3114.0096416305138
9,1.0
10,364.91995730569456
11,1.0
12,364.91995730569456
13,3114.0096416305138
14,5.850786131890775
15,13.41297880662945
16,5.0823253602819709
17,-3.3580427036483799
18,4.9238386983103699
2,1, 1, 1, 0, 9,30.00,45.00,Tuesday
7,-9.175
8,3620.9788466187658
9,1.0
10,420.35879993239237
11,1.0
12,420.35879993239237
13,3620.9788466187658
14,6.184192904724455
15,16.170283906627373
16,6.061048338490764
17,-2.6796996642893875
18,5.174371428090451
2,1, 1, 1, 0, 9,45.00,60.00,Tuesday
7,-8.9
8,4147.254307348187
9,1.0
10,478.00138373643099
11,1.0
12,478.00138373643099
13,4147.254307348187
14,6.571926600577128
15,19.165274329001148
16,7.027943802137543
17,-1.9876216832517458
18,5.437972443572784
2,1, 1, 1, 0,10, 0.00,15.00,Tuesday
7,-8.350000000000002
8,4684.648484144343
9,1.0
10,536.9185644770597
11,1.0
12,536.9185644770597
13,4684.648484144343
14,6.906937252232215
15,20.28187962783025
16,7.995137048570712
17,-1.3241201765648612
18,5.715168261500923
2,1, 1, 1, 0,10,15.00,30.00,Tuesday
7,-7.800000000000001
8,5240.608015714945
9,1.0
10,598.0969199229219
11,1.0
12,598.0969199229219
13,5240.608015714945
14,7.271762873722177
15,21.53410043807394
16,8.976541763456737
17,-0.6588106961962694
18,6.0117500714039269
2,1, 1, 1, 0,10,30.00,45.00,Tuesday
7,-7.25
8,5605.323921093528
9,1.0
10,637.6133352894237
11,1.0
12,637.6133352894237
13,5605.323921093528
14,7.557531926799095
15,21.593063149929209
16,9.676260338293105
17,-0.20917355009356698
18,6.135657971607294
2,1, 1, 1, 0,10,45.00,60.00,Tuesday
7,-6.7
8,5964.667754902514
9,1.0
10,676.6412284283772
11,1.0
12,676.6412284283772
13,5964.667754902514
14,7.8202329150386
15,21.751432251852387
16,10.33283278048043
17,0.2334613195947668
18,6.381794124285293
2,1, 1, 1, 0,11, 0.00,15.00,Tuesday
7,-6.275
8,6317.474208179253
9,1.0
10,715.0112779846514
11,1.0
12,715.0112779846514
13,6317.474208179253
14,8.131688937071838
15,23.848338051202825
16,11.060195324263873
17,0.9391450651378364
18,6.574860488418754
2,1, 1, 1, 0,11,15.00,30.00,Tuesday
7,-5.85
8,6661.976035385195
9,1.0
10,752.5077794605232
11,1.0
12,752.5077794605232
13,6661.976035385195
14,8.514178805830407
15,25.78535255662994
16,11.803860046743012
17,1.636279697755981
18,7.02522545563148
2,1, 1, 1, 0,11,30.00,45.00,Tuesday
7,-5.425
8,6559.590639127897
9,1.0
10,742.5988714321785
11,1.0
12,742.5988714321785
13,6559.590639127897
14,8.810351409914713
15,25.639140167048454
16,12.029874639885464
17,1.9271555194005146
18,7.427168407986788
2,1, 1, 1, 0,11,45.00,60.00,Tuesday
7,-5.0
8,6413.2938485147019
9,1.0
10,727.8169025450712
11,1.0
12,727.8169025450712
13,6413.2938485147019
14,9.068778485982119
15,25.410275918432025
16,12.175400152198222
17,2.181792598290656
18,7.770524137603009
2,1, 1, 1, 0,12, 0.00,15.00,Tuesday
7,-4.575
8,6161.707695169875
9,1.0
10,700.3759009170325
11,1.0
12,700.3759009170325
13,6161.707695169875
14,9.252992836887197
15,24.668270545675587
16,12.165051880896954
17,2.364801345653518
18,8.061348339130579
2,1, 1, 1, 0,12,15.00,30.00,Tuesday
7,-4.15
8,5975.124016097185
9,1.0
10,681.6705029034473
11,1.0
12,681.6705029034473
13,5975.124016097185
14,9.420929415756714
15,24.337482751432068
16,12.2164858261267
17,2.6137087890775207
18,8.313837626443207
2,1, 1, 1, 0,12,30.00,45.00,Tuesday
7,-3.7249999999999998
8,5245.661247450245
9,1.0
10,602.01865277251
11,1.0
12,602.01865277251
13,5245.661247450245
14,9.368044085633255
15,21.310314844046304
16,11.541076997311848
17,2.3513650365996456
18,8.504644241273264
2,1, 1, 1, 0,12,45.00,60.00,Tuesday
7,-3.3
8,4284.197434080928
9,1.0
10,493.55004396206007
11,1.0
12,493.55004396206007
13,4284.197434080928
14,9.178608352416698
15,17.132234378750224
16,10.418772149977258
17,1.813475920365704
18,8.606506224603545
2,1, 1, 1, 0,13, 0.00,15.00,Tuesday
7,-3.0249999999999996
8,3537.445593115435
9,1.0
10,412.335026418112
11,1.0
12,412.335026418112
13,3537.445593115435
14,9.049541486716697
15,14.288594699410837
16,9.524244293652885
17,1.4438056047698638
18,8.637551402461803
2,1, 1, 1, 0,13,15.00,30.00,Tuesday
7,-2.75
8,2590.853186043415
9,1.0
10,305.94037763660148
11,1.0
12,305.94037763660148
13,2590.853186043415
14,8.73618445287431
15,10.116093560617113
16,8.214663366291689
17,0.8130445490068041
18,8.60968543886085
2,1, 1, 1, 0,13,30.00,45.00,Tuesday
7,-2.475
8,2365.357246120335
9,1.0
10,281.0763483922329
11,1.0
12,281.0763483922329
13,2365.357246120335
14,8.716662787412439
15,9.60445263849125
16,7.964010328224106
17,0.9027301465572464
18,8.562915282960733
2,1, 1, 1, 0,13,45.00,60.00,Tuesday
7,-2.2
8,2144.5586982865008
9,1.0
10,256.7721209415886
11,1.0
12,256.7721209415886
13,2144.5586982865008
14,8.678786583547426
15,8.997403552618918
16,7.786215541662955
17,1.0191772120945189
18,8.523799911001579
2,1, 1, 1, 0,14, 0.00,15.00,Tuesday
7,-1.9250000000000003
8,1751.8863449049696
9,1.0
10,210.73276284570657
11,1.0
12,210.73276284570657
13,1751.8863449049696
14,8.532983477548088
15,7.450851574531919
16,7.306231115310197
17,0.9145455962315054
18,8.486885777216635
2,1, 1, 1, 0,14,15.00,30.00,Tuesday
7,-1.6500000000000002
8,1556.2405744298179
9,1.0
10,189.38488290342594
11,1.0
12,189.38488290342594
13,1556.2405744298179
14,8.497431394403119
15,7.045877641481121
16,7.119972703775943
17,1.020524317109789
18,8.452410203931903
2,1, 1, 1, 0,14,30.00,45.00,Tuesday
7,-1.375
8,1484.2130869693643
9,1.0
10,179.3940297802914
11,1.0
12,179.3940297802914
13,1484.2130869693643
14,8.487166107263322
15,7.169034122071227
16,7.118185418259031
17,1.2460094794233783
18,8.423290454779292
2,1, 1, 1, 0,14,45.00,60.00,Tuesday
7,-1.1
8,1411.362724961817
9,1.0
10,169.43349014176136
11,1.0
12,169.43349014176136
13,1411.362724961817
14,8.47312183762814
15,7.268612266408003
16,7.11030928009518
17,1.4681723151213647
18,8.399514086500075
2,1, 1, 1, 0,15, 0.00,15.00,Tuesday
7,-1.1
8,1485.5478120977
9,1.0
10,178.15692317953907
11,1.0
12,178.15692317953907
13,1485.5478120977
14,8.5349113512021
15,8.086003413332876
16,7.248032489714888
17,1.62246087968731
18,8.38497049276254
2,1, 1, 1, 0,15,15.00,30.00,Tuesday
7,-1.1
8,1395.6313707719838
9,1.0
10,166.40516310952945
11,1.0
12,166.40516310952945
13,1395.6313707719838
14,8.481328381112724
15,7.724416555056314
16,7.126916901175832
17,1.5753909907550679
18,8.373289200556244
2,1, 1, 1, 0,15,30.00,45.00,Tuesday
7,-1.1
8,1176.7712955684957
9,1.0
10,140.8967369711617
11,1.0
12,140.8967369711617
13,1176.7712955684957
14,8.36053479789278
15,6.518801779822987
16,6.776284742391454
17,1.3557663741545412
18,8.352650594423296
2,1, 1, 1, 0,15,45.00,60.00,Tuesday
7,-1.1
8,968.3868714642877
9,1.0
10,116.57355796743004
11,1.0
12,116.57355796743004
13,968.3868714642877
14,8.227258999642242
15,5.305845494609841
16,6.424863629788547
17,1.1298760238255455
18,8.314954061622175
2,1, 1, 1, 0,16, 0.00,15.00,Tuesday
7,-1.1
8,768.567072310748
9,1.0
10,93.14939272689483
11,1.0
12,93.14939272689483
13,768.567072310748
14,8.11753752293926
15,4.260272898063103
16,6.121259952468847
17,0.9894255573134956
18,8.25661325890754
2,1, 1, 1, 0,16,15.00,30.00,Tuesday
7,-1.1
8,477.1278311199492
9,1.0
10,57.94047897402063
11,1.0
12,57.94047897402063
13,477.1278311199492
14,7.911517026552104
15,2.1365043739385385
16,5.638026838370138
17,0.6954525047149218
18,8.172975953503715
2,1, 1, 1, 0,16,30.00,45.00,Tuesday
7,-1.1
8,369.92992568872679
9,1.0
10,45.38251793443488
11,1.0
12,45.38251793443488
13,369.92992568872679
14,7.832310854336283
15,1.5280242750003706
16,5.4470572457975099
17,0.6580592282309681
18,8.078219488738691
2,1, 1, 1, 0,16,45.00,60.00,Tuesday
7,-1.1
8,258.23559610460418
9,1.0
10,32.02625108222755
11,1.0
12,32.02625108222755
13,258.23559610460418
14,7.712284913672014
15,0.6660164240121702
16,5.265807303376846
17,0.6171762768602207
18,7.9847342431112209
2,1, 1, 1, 0,17, 0.00,15.00,Tuesday
7,-1.1
8,141.6418627784957
9,1.0
10,17.762198626050539
11,1.0
12,17.762198626050539
13,141.6418627784957
14,7.567356957894711
15,-0.5832071815629173
16,5.020933477160952
17,0.4721691782202697
18,7.891057307229431
2,1, 1, 1, 0,17,15.00,30.00,Tuesday
7,-1.1
8,0.0
9,0.0
10,0.0
11,0.0
12,0.0
13,0.0
14,7.371083174417574
15,-2.419625166302859
16,4.678946560609177
17,0.187209952775504
18,7.784241524731961
2,1, 1, 1, 0,17,30.00,45.00,Tuesday
7,-1.1
8,0.0
9,0.0
10,0.0
11,0.0
12,0.0
13,0.0
14,7.312916017098378
15,-2.5543638807165647
16,4.623747515585251
17,0.22516358801794923
18,7.67978220168036
2,1, 1, 1, 0,17,45.00,60.00,Tuesday
7,-1.1
8,0.0
9,0.0
10,0.0
11,0.0
12,0.0
13,0.0
14,7.238047684002897
15,-2.743760464210754
16,4.600958909152041
17,0.27887584575950088
18,7.5919439898246658
2,1, 1, 1, 0,18, 0.00,15.00,Tuesday
7,-1.25
8,0.0
9,0.0
10,0.0
11,0.0
12,0.0
13,0.0
14,7.174358357131944
15,-2.8918373378646224
16,4.498300321363672
17,0.15023220648402003
18,7.520897764863327
2,1, 1, 1, 0,18,15.00,30.00,Tuesday
7,-1.4
8,0.0
9,0.0
10,0.0
11,0.0
12,0.0
13,0.0
14,7.115932196074773
15,-3.0443415502265296
16,4.411021609593263
17,0.026073054961329946
18,7.461092247347316
2,1, 1, 1, 0,18,30.00,45.00,Tuesday
7,-1.5499999999999999
8,0.0
9,0.0
10,0.0
11,0.0
12,0.0
13,0.0
14,7.061490158630868
15,-3.19641557163114
16,4.32825827098543
17,-0.09707586329193419
18,7.407185158449213
2,1, 1, 1, 0,18,45.00,60.00,Tuesday
7,-1.7
8,0.0
9,0.0
10,0.0
11,0.0
12,0.0
13,0.0
14,7.008846204548018
15,-3.348663579055197
16,4.248064058278999
17,-0.21937832827700277
18,7.355960063714824
2,1, 1, 1, 0,19, 0.00,15.00,Tuesday
7,-1.825
8,0.0
9,0.0
10,0.0
11,0.0
12,0.0
13,0.0
14,6.980426899239805
15,-3.2040517911790546
16,4.13048241932222
17,-0.422251331520215
18,7.308997622319699
2,1, 1, 1, 0,19,15.00,30.00,Tuesday
7,-1.9500000000000002
8,0.0
9,0.0
10,0.0
11,0.0
12,0.0
13,0.0
14,6.950570696202823
15,-3.140491585365884
16,4.030105004463792
17,-0.6125720868798226
18,7.268036314538347
2,1, 1, 1, 0,19,30.00,45.00,Tuesday
7,-2.075
8,0.0
9,0.0
10,0.0
11,0.0
12,0.0
13,0.0
14,6.916334073405637
15,-3.2152361226808767
16,3.9640368877970788
17,-0.736864595985594
18,7.232094362201592
2,1, 1, 1, 0,19,45.00,60.00,Tuesday
7,-2.2
8,0.0
9,0.0
10,0.0
11,0.0
12,0.0
13,0.0
14,6.8845087828790609
15,-3.1958010749068586
16,3.866955097268715
17,-0.9188401118512957
18,7.198086503190383
2,1, 1, 1, 0,20, 0.00,15.00,Tuesday
7,-1.9250000000000003
8,0.0
9,0.0
10,0.0
11,0.0
12,0.0
13,0.0
14,6.869378769361909
15,-2.895368706857673
16,3.935686751934213
17,-0.7571029648736385
18,7.167397574702886
2,1, 1, 1, 0,20,15.00,30.00,Tuesday
7,-1.6500000000000002
8,0.0
9,0.0
10,0.0
11,0.0
12,0.0
13,0.0
14,6.854807717813141
15,-2.59783162035664
16,3.989567784016117
17,-0.5663872219378732
18,7.140739130529998
2,1, 1, 1, 0,20,30.00,45.00,Tuesday
7,-1.375
8,0.0
9,0.0
10,0.0
11,0.0
12,0.0
13,0.0
14,6.842494012805646
15,-2.3015457851472607
16,4.054621250928562
17,-0.3891500304063129
18,7.117637402616769
2,1, 1, 1, 0,20,45.00,60.00,Tuesday
7,-1.1
8,0.0
9,0.0
10,0.0
11,0.0
12,0.0
13,0.0
14,6.831903380588729
15,-2.0064886394248977
16,4.112501077886236
17,-0.19031578375006576
18,7.0970547003401889
2,1, 1, 1, 0,21, 0.00,15.00,Tuesday
7,-1.25
8,0.0
9,0.0
10,0.0
11,0.0
12,0.0
13,0.0
14,6.78063133554659
15,-2.2849186246587478
16,4.0843672745826329
17,-0.21350918976639833
18,7.072007185625515
2,1, 1, 1, 0,21,15.00,30.00,Tuesday
7,-1.4
8,0.0
9,0.0
10,0.0
11,0.0
12,0.0
13,0.0
14,6.730014688941907
15,-2.500061555601792
16,4.0309177138094018
17,-0.28001427934196956
18,7.037607746413248
2,1, 1, 1, 0,21,30.00,45.00,Tuesday
7,-1.5499999999999999
8,0.0
9,0.0
10,0.0
11,0.0
12,0.0
13,0.0
14,6.666497210989861
15,-2.8408007175409537
16,4.0031560458125459
17,-0.29029678964502639
18,6.993309302470655
2,1, 1, 1, 0,21,45.00,60.00,Tuesday
7,-1.7
8,0.0
9,0.0
10,0.0
11,0.0
12,0.0
13,0.0
14,6.597915775797206
15,-3.28858781530849
16,3.9837999202140965
17,-0.27916085421816208
18,6.94170626852141
2,1, 1, 1, 0,22, 0.00,15.00,Tuesday
7,-1.5499999999999999
8,0.0
9,0.0
10,0.0
11,0.0
12,0.0
13,0.0
14,6.596767326421214
15,-2.805950481041321
16,3.9263393351798188
17,-0.3139928943544419
18,6.895443895499697
2,1, 1, 1, 0,22,15.00,30.00,Tuesday
7,-1.4
8,0.0
9,0.0
10,0.0
11,0.0
12,0.0
13,0.0
14,6.5843300422713739
15,-2.4792669247682048
16,3.913073396319419
17,-0.31576518287471347
18,6.861395832415604
2,1, 1, 1, 0,22,30.00,45.00,Tuesday
7,-1.25
8,0.0
9,0.0
10,0.0
11,0.0
12,0.0
13,0.0
14,6.5729124026126179
15,-2.260691227192227
16,3.9256038000496575
17,-0.25606561852328016
18,6.837706685510437
2,1, 1, 1, 0,22,45.00,60.00,Tuesday
7,-1.1
8,0.0
9,0.0
10,0.0
11,0.0
12,0.0
13,0.0
14,6.563070101037426
15,-1.9809412771914675
16,3.9264189952322114
17,-0.23396777557002225
18,6.819134230521332
2,1, 1, 1, 0,23, 0.00,15.00,Tuesday
7,-1.25
8,0.0
9,0.0
10,0.0
11,0.0
12,0.0
13,0.0
14,6.510243287727911
15,-2.284317128731138
16,3.800041282428424
17,-0.4829932211874848
18,6.794911021200483
2,1, 1, 1, 0,23,15.00,30.00,Tuesday
7,-1.4
8,0.0
9,0.0
10,0.0
11,0.0
12,0.0
13,0.0
14,6.45953366974711
15,-2.5890301395819379
16,3.6673847396141925
17,-0.7500358726051672
18,6.759991396992989
2,1, 1, 1, 0,23,30.00,45.00,Tuesday
7,-1.5499999999999999
8,0.0
9,0.0
10,0.0
11,0.0
12,0.0
13,0.0
14,6.403944002758607
15,-2.894387721229149
16,3.533062969322941
17,-1.0186115726392018
18,6.715754187465558
2,1, 1, 1, 0,23,45.00,60.00,Tuesday
7,-1.7
8,0.0
9,0.0
10,0.0
11,0.0
12,0.0
13,0.0
14,6.344323649844108
15,-3.200089608853553
16,3.3949355633835127
17,-1.2890431158862157
18,6.665373413549607
2,1, 1, 1, 0,24, 0.00,15.00,Tuesday
7,-1.7
8,0.0
9,0.0
10,0.0
11,0.0
12,0.0
13,0.0
14,6.301104336197618
15,-3.254248247739966
16,3.3407792613210747
17,-1.3539691058724089
18,6.614900505817371
2,1, 1, 1, 0,24,15.00,30.00,Tuesday
7,-1.7
8,0.0
9,0.0
10,0.0
11,0.0
12,0.0
13,0.0
14,6.2558276695555199
15,-3.309006892837254
16,3.289134851166409
17,-1.4151511008495846
18,6.567407069397433
2,1, 1, 1, 0,24,30.00,45.00,Tuesday
7,-1.7
8,0.0
9,0.0
10,0.0
11,0.0
12,0.0
13,0.0
14,6.211795456144577
15,-3.363652318828603
16,3.2373017732068094
17,-1.4762849163266765
18,6.522735737840332
2,1, 1, 1, 0,24,45.00,60.00,Tuesday
7,-1.7
8,0.0
9,0.0
10,0.0
11,0.0
12,0.0
13,0.0
14,6.168677835205621
15,-3.4183008092356195
16,3.1863105660137878
17,-1.5371879998918985
18,6.479705618785424
End of Data
 Number of Records Written=        1152
