Program Version,EnergyPlus, Version 9.5.0-de239b2e5f, YMD=2023.02.16 21:09
1,5,Environment Title[],Latitude[deg],Longitude[deg],Time Zone[],Elevation[m]
2,8,Day of Simulation[],Month[],Day of Month[],DST Indicator[1=yes 0=no],Hour[],StartMinute[],EndMinute[],DayType
3,5,Cumulative Day of Simulation[],Month[],Day of Month[],DST Indicator[1=yes 0=no],DayType  ! When Daily Report Variables Requested
4,2,Cumulative Days of Simulation[],Month[]  ! When Monthly Report Variables Requested
5,1,Cumulative Days of Simulation[] ! When Run Period Report Variables Requested
6,1,Calendar Year of Simulation[] ! When Annual Report Variables Requested
7,1,Environment,Site Outdoor Air Drybulb Temperature [C] !TimeStep
8,1,ZONE ONE,Zone Windows Total Transmitted Solar Radiation Rate [W] !TimeStep
9,1,ZN001:WALL001,Surface Outside Face Sunlit Fraction [] !TimeStep
10,1,ZN001:WALL001,Surface Outside Face Incident Solar Radiation Rate per Area [W/m2] !TimeStep
11,1,ZN001:WALL001:WIN001,Surface Outside Face Sunlit Fraction [] !TimeStep
12,1,ZN001:WALL001:WIN001,Surface Outside Face Incident Solar Radiation Rate per Area [W/m2] !TimeStep
13,1,ZN001:WALL001:WIN001,Surface Window Transmitted Solar Radiation Rate [W] !TimeStep
14,1,ZN001:WALL001,Surface Inside Face Temperature [C] !TimeStep
15,1,ZN001:WALL001,Surface Outside Face Temperature [C] !TimeStep
16,1,ZN001:WALL001:WIN001,Surface Inside Face Temperature [C] !TimeStep
17,1,ZN001:WALL001:WIN001,Surface Outside Face Temperature [C] !TimeStep
18,1,ZONE ONE,Zone Mean Air Temperature [C] !TimeStep
End of Data Dictionary
1,RUN PERIOD 1,  41.98, -87.92,  -6.00, 201.00
2,1, 1, 1, 0, 1, 0.00,15.00,Tuesday
7,-4.324999999999999
8,0.0
9,0.0
10,0.0
11,0.0
12,0.0
13,0.0
14,4.509699371609387
15,-5.92182055928073
16,1.5552339933922213
17,-3.9597368124404968
18,4.921083148461336
2,1, 1, 1, 0, 1,15.00,30.00,Tuesday
7,-6.949999999999999
8,0.0
9,0.0
10,0.0
11,0.0
12,0.0
13,0.0
14,4.324165755207974
15,-8.389558487750563
16,0.7672529214954693
17,-5.910358446005489
18,4.819299294982602
2,1, 1, 1, 0, 1,30.00,45.00,Tuesday
7,-9.575
8,0.0
9,0.0
10,0.0
11,0.0
12,0.0
13,0.0
14,4.116953539689076
15,-10.865440557497396
16,-0.026199665066656054
17,-7.867130571118423
18,4.682580161016995
2,1, 1, 1, 0, 1,45.00,60.00,Tuesday
7,-12.2
8,0.0
9,0.0
10,0.0
11,0.0
12,0.0
13,0.0
14,3.891544348452329
15,-13.347939635223553
16,-0.8340152926579094
17,-9.832263189447986
18,4.521467660279621
2,1, 1, 1, 0, 2, 0.00,15.00,Tuesday
7,-12.075
8,0.0
9,0.0
10,0.0
11,0.0
12,0.0
13,0.0
14,3.8217330744772837
15,-13.149239721446499
16,-0.8737878990107788
17,-9.69326723987973
18,4.377271951768703
2,1, 1, 1, 0, 2,15.00,30.00,Tuesday
7,-11.95
8,0.0
9,0.0
10,0.0
11,0.0
12,0.0
13,0.0
14,3.7373198719636555
15,-12.972228137441857
16,-0.8857907823323785
17,-9.57659909838901
18,4.268365529461484
2,1, 1, 1, 0, 2,30.00,45.00,Tuesday
7,-11.825
8,0.0
9,0.0
10,0.0
11,0.0
12,0.0
13,0.0
14,3.671751957103541
15,-12.793937772922547
16,-0.8952564459792711
17,-9.449986673269109
18,4.18858990778451
2,1, 1, 1, 0, 2,45.00,60.00,Tuesday
7,-11.7
8,0.0
9,0.0
10,0.0
11,0.0
12,0.0
13,0.0
14,3.6183503861623649
15,-12.615730725821122
16,-0.89258514530718
17,-9.318249244112736
18,4.125766256779214
2,1, 1, 1, 0, 3, 0.00,15.00,Tuesday
7,-11.549999999999999
8,0.0
9,0.0
10,0.0
11,0.0
12,0.0
13,0.0
14,3.567072796874853
15,-12.490145159206117
16,-0.878462443209628
17,-9.175728648323855
18,4.0702508985607379
2,1, 1, 1, 0, 3,15.00,30.00,Tuesday
7,-11.399999999999999
8,0.0
9,0.0
10,0.0
11,0.0
12,0.0
13,0.0
14,3.5192541498412917
15,-12.365952251038677
16,-0.8625240984011953
17,-9.03255451277812
18,4.017319912393701
2,1, 1, 1, 0, 3,30.00,45.00,Tuesday
7,-11.25
8,0.0
9,0.0
10,0.0
11,0.0
12,0.0
13,0.0
14,3.472459345081093
15,-12.243310268121953
16,-0.8448836708383851
17,-8.889104804467593
18,3.965571719375767
2,1, 1, 1, 0, 3,45.00,60.00,Tuesday
7,-11.1
8,0.0
9,0.0
10,0.0
11,0.0
12,0.0
13,0.0
14,3.4262789374127906
15,-12.122275658676239
16,-0.826593246853804
17,-8.74582081523124
18,3.9147987443031875
2,1, 1, 1, 0, 4, 0.00,15.00,Tuesday
7,-11.1
8,0.0
9,0.0
10,0.0
11,0.0
12,0.0
13,0.0
14,3.3760788876239848
15,-12.093279067740088
16,-0.8872827005652084
17,-8.784866815970986
18,3.8636699579307587
2,1, 1, 1, 0, 4,15.00,30.00,Tuesday
7,-11.1
8,0.0
9,0.0
10,0.0
11,0.0
12,0.0
13,0.0
14,3.326233570049081
15,-12.065413631754286
16,-0.9396997738959385
17,-8.830836688137083
18,3.8117344423616714
2,1, 1, 1, 0, 4,30.00,45.00,Tuesday
7,-11.1
8,0.0
9,0.0
10,0.0
11,0.0
12,0.0
13,0.0
14,3.2760493224320426
15,-12.039111621233474
16,-0.9909058425452031
17,-8.876781384598758
18,3.7592325249196909
2,1, 1, 1, 0, 4,45.00,60.00,Tuesday
7,-11.1
8,0.0
9,0.0
10,0.0
11,0.0
12,0.0
13,0.0
14,3.2256895242711685
15,-12.014237030734263
16,-1.0417604973437165
17,-8.921762696775886
18,3.7065178555815936
2,1, 1, 1, 0, 5, 0.00,15.00,Tuesday
7,-10.975
8,0.0
9,0.0
10,0.0
11,0.0
12,0.0
13,0.0
14,3.1812005678444659
15,-11.892251592732304
16,-1.0393654194270994
17,-8.845559123253054
18,3.6551027498252539
2,1, 1, 1, 0, 5,15.00,30.00,Tuesday
7,-10.85
8,0.0
9,0.0
10,0.0
11,0.0
12,0.0
13,0.0
14,3.136995545104776
15,-11.770338522085242
16,-1.0401558752682263
17,-8.761604215354737
18,3.605564187851089
2,1, 1, 1, 0, 5,30.00,45.00,Tuesday
7,-10.725
8,0.0
9,0.0
10,0.0
11,0.0
12,0.0
13,0.0
14,3.093945323097322
15,-11.648399659046117
16,-1.0408514033812253
17,-8.67654468118144
18,3.5576142286908807
2,1, 1, 1, 0, 5,45.00,60.00,Tuesday
7,-10.6
8,0.0
9,0.0
10,0.0
11,0.0
12,0.0
13,0.0
14,3.0518511207207448
15,-11.526469464361464
16,-1.0407536072365247
17,-8.591106591128835
18,3.5107903905561197
2,1, 1, 1, 0, 6, 0.00,15.00,Tuesday
7,-10.6
8,0.0
9,0.0
10,0.0
11,0.0
12,0.0
13,0.0
14,3.002556194158309
15,-11.527446275912184
16,-1.0797207617025607
17,-8.59563324721529
18,3.4633010460951576
2,1, 1, 1, 0, 6,15.00,30.00,Tuesday
7,-10.6
8,0.0
9,0.0
10,0.0
11,0.0
12,0.0
13,0.0
14,2.9538992470208029
15,-11.528358349089462
16,-1.1169667556213199
17,-8.606197261895204
18,3.4143694251941527
2,1, 1, 1, 0, 6,30.00,45.00,Tuesday
7,-10.6
8,0.0
9,0.0
10,0.0
11,0.0
12,0.0
13,0.0
14,2.90466958087362
15,-11.529314192774244
16,-1.1539134729626426
17,-8.61744687683597
18,3.364303148197679
2,1, 1, 1, 0, 6,45.00,60.00,Tuesday
7,-10.6
8,0.0
9,0.0
10,0.0
11,0.0
12,0.0
13,0.0
14,2.8551013983167179
15,-11.530268037218873
16,-1.1911963860021616
17,-8.628914993940157
18,3.3136654586999718
2,1, 1, 1, 0, 7, 0.00,15.00,Tuesday
7,-10.6
8,0.0
9,0.0
10,0.0
11,0.0
12,0.0
13,0.0
14,2.807500619846721
15,-11.506313153970888
16,-1.240724894545565
17,-8.667667976342728
18,3.2630753629049598
2,1, 1, 1, 0, 7,15.00,30.00,Tuesday
7,-10.6
8,0.0
9,0.0
10,0.0
11,0.0
12,0.0
13,0.0
14,2.759744900726222
15,-11.483604013550727
16,-1.2879164212571369
17,-8.706741062382662
18,3.212876500731592
2,1, 1, 1, 0, 7,30.00,45.00,Tuesday
7,-10.6
8,0.0
9,0.0
10,0.0
11,0.0
12,0.0
13,0.0
14,2.712234516852279
15,-11.462049035807788
16,-1.3344632951204858
17,-8.744976006157117
18,3.1630866974892379
2,1, 1, 1, 0, 7,45.00,60.00,Tuesday
7,-10.6
8,0.0
9,0.0
10,0.0
11,0.0
12,0.0
13,0.0
14,2.6649952663588718
15,-11.441579310985955
16,-1.3803983125612263
17,-8.782148684708773
18,3.1136278455532109
2,1, 1, 1, 0, 8, 0.00,15.00,Tuesday
7,-10.45
8,0.0
9,0.0
10,0.0
11,0.0
12,0.0
13,0.0
14,2.6172950466481468
15,-11.392955614080647
16,-1.3862476503413746
17,-8.729352825326487
18,3.0644132682151716
2,1, 1, 1, 0, 8,15.00,30.00,Tuesday
7,-10.3
8,148.01653406384325
9,1.0
10,22.819555959623899
11,1.0
12,22.819555959623899
13,148.01653406384325
14,2.6899431227709997
15,-9.719458053605863
16,-1.055887363031161
17,-8.373964300253079
18,3.033329470055964
2,1, 1, 1, 0, 8,30.00,45.00,Tuesday
7,-10.15
8,726.7626658810535
9,1.0
10,109.75755355442667
11,1.0
12,109.75755355442667
13,726.7626658810535
14,3.0918238786240268
15,-3.3519826169369297
16,0.2975083977065083
17,-7.166419388300255
18,3.0700654755822009
2,1, 1, 1, 0, 8,45.00,60.00,Tuesday
7,-10.0
8,1321.5398876203654
9,1.0
10,195.8764694434918
11,1.0
12,195.8764694434918
13,1321.5398876203654
14,3.6133616749632244
15,3.141843263591631
16,1.7567087830588549
17,-5.931275294652323
18,3.181283099678299
2,1, 1, 1, 0, 9, 0.00,15.00,Tuesday
7,-9.725
8,1914.2684677032626
9,1.0
10,278.97248314719988
11,1.0
12,278.97248314719988
13,1914.2684677032626
14,4.005071452190557
15,8.309380816900534
16,3.2494755709050198
17,-4.81011398173348
18,3.3454560971447577
2,1, 1, 1, 0, 9,15.00,30.00,Tuesday
7,-9.45
8,2539.072313923231
9,1.0
10,364.91995730569456
11,1.0
12,364.91995730569456
13,2539.072313923231
14,4.436177571981565
15,13.391082589046727
16,4.782276825659665
17,-3.6889488472201039
18,3.553682718313244
2,1, 1, 1, 0, 9,30.00,45.00,Tuesday
7,-9.175
8,2952.440164549716
9,1.0
10,420.35879993239237
11,1.0
12,420.35879993239237
13,2952.440164549716
14,4.7426298247283908
15,16.149109689958075
16,5.769761927944842
17,-2.9847820978114898
18,3.7850479266976895
2,1, 1, 1, 0, 9,45.00,60.00,Tuesday
7,-8.9
8,3381.5497710085135
9,1.0
10,478.00138373643099
11,1.0
12,478.00138373643099
13,3381.5497710085135
14,5.099982330589769
15,19.14429904256646
16,6.760562080538023
17,-2.269068317200947
18,4.029444482145543
2,1, 1, 1, 0,10, 0.00,15.00,Tuesday
7,-8.350000000000002
8,3819.72525310092
9,1.0
10,536.9185644770597
11,1.0
12,536.9185644770597
13,3819.72525310092
14,5.402707851929288
15,20.262273786565794
16,7.759058706577207
17,-1.571272296935831
18,4.2870021963986979
2,1, 1, 1, 0,10,15.00,30.00,Tuesday
7,-7.800000000000001
8,4273.038382064532
9,1.0
10,598.0969199229219
11,1.0
12,598.0969199229219
13,4273.038382064532
14,5.73315749080639
15,21.515504438240606
16,8.772071486522805
17,-0.8743364440300638
18,4.563783158742283
2,1, 1, 1, 0,10,30.00,45.00,Tuesday
7,-7.25
8,4570.41705598247
9,1.0
10,637.6133352894237
11,1.0
12,637.6133352894237
13,4570.41705598247
14,5.988003919987518
15,21.575443799452758
16,9.489894684056708
17,-0.40361735646894206
18,4.853445482307879
2,1, 1, 1, 0,10,45.00,60.00,Tuesday
7,-6.7
8,4863.415499985352
9,1.0
10,676.6412284283772
11,1.0
12,676.6412284283772
13,4863.415499985352
14,6.267683912174459
15,21.73590017939318
16,10.185508390604923
17,0.0643659161278265
18,5.144616219241131
2,1, 1, 1, 0,11, 0.00,15.00,Tuesday
7,-6.275
8,5151.083555253686
9,1.0
10,715.0112779846514
11,1.0
12,715.0112779846514
13,5151.083555253686
14,6.6255708173952529
15,23.833806055553624
16,10.964848431491078
17,0.7971339787684428
18,5.4385540125684239
2,1, 1, 1, 0,11,15.00,30.00,Tuesday
7,-5.85
8,5431.980261502767
9,1.0
10,752.5077794605232
11,1.0
12,752.5077794605232
13,5431.980261502767
14,6.973610573969928
15,25.769200959103967
16,11.733899601000985
17,1.5127841094763426
18,5.738550767174008
2,1, 1, 1, 0,11,30.00,45.00,Tuesday
7,-5.425
8,5348.498206243613
9,1.0
10,742.5988714321785
11,1.0
12,742.5988714321785
13,5348.498206243613
14,7.183137462149776
15,25.62130198216812
16,11.900122013741282
17,1.7885517777470455
18,6.025719067802694
2,1, 1, 1, 0,11,45.00,60.00,Tuesday
7,-5.0
8,5229.212085323862
9,1.0
10,727.8169025450712
11,1.0
12,727.8169025450712
13,5229.212085323862
14,7.388254039808388
15,25.392447382972035
16,11.981325600310015
17,2.0273961484675739
18,6.286080114262768
2,1, 1, 1, 0,12, 0.00,15.00,Tuesday
7,-4.575
8,5024.076099878796
9,1.0
10,700.3759009170325
11,1.0
12,700.3759009170325
13,5024.076099878796
14,7.534240334242515
15,24.65012895954334
16,11.911904955705723
17,2.1953955731779049
18,6.51177642029951
2,1, 1, 1, 0,12,15.00,30.00,Tuesday
7,-4.15
8,4871.94122931558
9,1.0
10,681.6705029034473
11,1.0
12,681.6705029034473
13,4871.94122931558
14,7.701281643741692
15,24.3199385344229
16,11.928693974842418
17,2.4358056584374028
18,6.710576104226756
2,1, 1, 1, 0,12,30.00,45.00,Tuesday
7,-3.7249999999999998
8,4277.158639322997
9,1.0
10,602.01865277251
11,1.0
12,602.01865277251
13,4277.158639322997
14,7.625775337978786
15,21.29178996031333
16,11.17119970856561
17,2.1414447904707005
18,6.859743373316713
2,1, 1, 1, 0,12,45.00,60.00,Tuesday
7,-3.3
8,3493.2091881935878
9,1.0
10,493.55004396206007
11,1.0
12,493.55004396206007
13,3493.2091881935878
14,7.435126107581385
15,17.113570497801218
16,9.956256122357332
17,1.5675094639403256
18,6.933428333298693
2,1, 1, 1, 0,13, 0.00,15.00,Tuesday
7,-3.0249999999999996
8,2884.3295946875239
9,1.0
10,412.335026418112
11,1.0
12,412.335026418112
13,2884.3295946875239
14,7.303520319748153
15,14.269481906147723
16,8.994238835169086
17,1.1676891213061254
18,6.946423569362418
2,1, 1, 1, 0,13,15.00,30.00,Tuesday
7,-2.75
8,2112.505852962877
9,1.0
10,305.94037763660148
11,1.0
12,305.94037763660148
13,2112.505852962877
14,7.005213753649405
15,10.09665293660644
16,7.641910218282305
17,0.5120138202177031
18,6.907650382289677
2,1, 1, 1, 0,13,30.00,45.00,Tuesday
7,-2.475
8,1928.6430638732532
9,1.0
10,281.0763483922329
11,1.0
12,281.0763483922329
13,1928.6430638732532
14,6.982590889317766
15,9.58442399734204
16,7.356506014893057
17,0.5911629338814919
18,6.854427018472251
2,1, 1, 1, 0,13,45.00,60.00,Tuesday
7,-2.2
8,1748.610390799348
9,1.0
10,256.7721209415886
11,1.0
12,256.7721209415886
13,1748.610390799348
14,6.947281038748855
15,8.977235032274307
16,7.134328190799749
17,0.6952139647913214
18,6.810076221746875
2,1, 1, 1, 0,14, 0.00,15.00,Tuesday
7,-1.9250000000000003
8,1428.4368474723443
9,1.0
10,210.73276284570657
11,1.0
12,210.73276284570657
13,1428.4368474723443
14,6.812682170716779
15,7.430085417748742
16,6.558712715000752
17,0.5592441001722932
18,6.771847109110549
2,1, 1, 1, 0,14,15.00,30.00,Tuesday
7,-1.6500000000000002
8,1268.9130128286689
9,1.0
10,189.38488290342594
11,1.0
12,189.38488290342594
13,1268.9130128286689
14,6.780896858750651
15,7.0244346665559089
16,6.330390369989743
17,0.6495501630689091
18,6.7391585696164368
2,1, 1, 1, 0,14,30.00,45.00,Tuesday
7,-1.375
8,1210.1839078162066
9,1.0
10,179.3940297802914
11,1.0
12,179.3940297802914
13,1210.1839078162066
14,6.775132168386651
15,7.146706253191544
16,6.312710909998486
17,0.869323107927471
18,6.713049533261626
2,1, 1, 1, 0,14,45.00,60.00,Tuesday
7,-1.1
8,1150.7838549837705
9,1.0
10,169.43349014176136
11,1.0
12,169.43349014176136
13,1150.7838549837705
14,6.766361914386457
15,7.24549800147291
16,6.289167940585514
17,1.0858614872996669
18,6.692833500501147
2,1, 1, 1, 0,15, 0.00,15.00,Tuesday
7,-1.1
8,1211.2722036175777
9,1.0
10,178.15692317953907
11,1.0
12,178.15692317953907
13,1211.2722036175777
14,6.824234021417847
15,8.061957888394164
16,6.441892771190851
17,1.2400419557832266
18,6.681503858098058
2,1, 1, 1, 0,15,15.00,30.00,Tuesday
7,-1.1
8,1137.9569692377798
9,1.0
10,166.40516310952945
11,1.0
12,166.40516310952945
13,1137.9569692377798
14,6.7762924045307149
15,7.699782951196677
16,6.298341137838406
17,1.1787789457106329
18,6.673025658213714
2,1, 1, 1, 0,15,30.00,45.00,Tuesday
7,-1.1
8,959.5048700077512
9,1.0
10,140.8967369711617
11,1.0
12,140.8967369711617
13,959.5048700077512
14,6.6644966452223068
15,6.493406493328348
16,5.905275686537607
17,0.9348210442630602
18,6.656840582636251
2,1, 1, 1, 0,15,45.00,60.00,Tuesday
7,-1.1
8,789.5943100591383
9,1.0
10,116.57355796743004
11,1.0
12,116.57355796743004
13,789.5943100591383
14,6.543914754409579
15,5.279742360559042
16,5.519514791153881
17,0.6846831423257527
18,6.624330441589006
2,1, 1, 1, 0,16, 0.00,15.00,Tuesday
7,-1.1
8,626.6670946064958
9,1.0
10,93.14939272689483
11,1.0
12,93.14939272689483
13,626.6670946064958
14,6.4424796199440179
15,4.231821678913392
16,5.1823806128193159
17,0.5150585103575054
18,6.573594959183869
2,1, 1, 1, 0,16,15.00,30.00,Tuesday
7,-1.1
8,389.0360678411529
9,1.0
10,57.94047897402063
11,1.0
12,57.94047897402063
13,389.0360678411529
14,6.252335141989416
15,2.105924965297844
16,4.6542612901404258
17,0.18231175841088999
18,6.497289912822428
2,1, 1, 1, 0,16,30.00,45.00,Tuesday
7,-1.1
8,301.6300334628514
9,1.0
10,45.38251793443488
11,1.0
12,45.38251793443488
13,301.6300334628514
14,6.179720604783074
15,1.4943429923840559
16,4.444811974481297
17,0.11798793565037613
18,6.406173644238792
2,1, 1, 1, 0,16,45.00,60.00,Tuesday
7,-1.1
8,210.55774644166127
9,1.0
10,32.02625108222755
11,1.0
12,32.02625108222755
13,210.55774644166127
14,6.067227426456309
15,0.6290209602485848
16,4.240766977912699
17,0.046808389490138328
18,6.314414752262686
2,1, 1, 1, 0,17, 0.00,15.00,Tuesday
7,-1.1
8,115.49062901598868
9,1.0
10,17.762198626050539
11,1.0
12,17.762198626050539
13,115.49062901598868
14,5.9289672292697699
15,-0.624738836031634
16,3.974241493714885
17,-0.13152528846870838
18,6.222744858547601
2,1, 1, 1, 0,17,15.00,30.00,Tuesday
7,-1.1
8,0.0
9,0.0
10,0.0
11,0.0
12,0.0
13,0.0
14,5.740615461680156
15,-2.463195257085338
16,3.6184980400719839
17,-0.4317816486450283
18,6.119880486175023
2,1, 1, 1, 0,17,30.00,45.00,Tuesday
7,-1.1
8,0.0
9,0.0
10,0.0
11,0.0
12,0.0
13,0.0
14,5.686400768085611
15,-2.5999618184619708
16,3.5525087936705406
17,-0.420109016879735
18,6.019948450105624
2,1, 1, 1, 0,17,45.00,60.00,Tuesday
7,-1.1
8,0.0
9,0.0
10,0.0
11,0.0
12,0.0
13,0.0
14,5.616576640218681
15,-2.792957976134769
16,3.521043557550229
17,-0.3899634547956339
18,5.936133603641981
2,1, 1, 1, 0,18, 0.00,15.00,Tuesday
7,-1.25
8,0.0
9,0.0
10,0.0
11,0.0
12,0.0
13,0.0
14,5.558016457457335
15,-2.940543539795607
16,3.4250792579526889
17,-0.521002594929314
18,5.868960874372019
2,1, 1, 1, 0,18,15.00,30.00,Tuesday
7,-1.4
8,0.0
9,0.0
10,0.0
11,0.0
12,0.0
13,0.0
14,5.504566564176521
15,-3.092990341600093
16,3.3454982407949389
17,-0.6401544488738864
18,5.8132953389314079
2,1, 1, 1, 0,18,30.00,45.00,Tuesday
7,-1.5499999999999999
8,0.0
9,0.0
10,0.0
11,0.0
12,0.0
13,0.0
14,5.455123154033569
15,-3.2449448841359178
16,3.2679742878984827
17,-0.7630239896715239
18,5.763967644355212
2,1, 1, 1, 0,18,45.00,60.00,Tuesday
7,-1.7
8,0.0
9,0.0
10,0.0
11,0.0
12,0.0
13,0.0
14,5.407617037542107
15,-3.39707340184028
16,3.193260919160764
17,-0.8850379921739204
18,5.717718154263512
2,1, 1, 1, 0,19, 0.00,15.00,Tuesday
7,-1.825
8,0.0
9,0.0
10,0.0
11,0.0
12,0.0
13,0.0
14,5.385351465002467
15,-3.2468221798636458
16,3.0982949646079307
17,-1.0529470151592478
18,5.6762286066751159
2,1, 1, 1, 0,19,15.00,30.00,Tuesday
7,-1.9500000000000002
8,0.0
9,0.0
10,0.0
11,0.0
12,0.0
13,0.0
14,5.361982277149978
15,-3.1782899188552578
16,3.0196195184928458
17,-1.2076401960240447
18,5.641235348040698
2,1, 1, 1, 0,19,30.00,45.00,Tuesday
7,-2.075
8,0.0
9,0.0
10,0.0
11,0.0
12,0.0
13,0.0
14,5.333914257605187
15,-3.2516515021958765
16,2.9623733223224919
17,-1.3215172267542812
18,5.611512723034592
2,1, 1, 1, 0,19,45.00,60.00,Tuesday
7,-2.2
8,0.0
9,0.0
10,0.0
11,0.0
12,0.0
13,0.0
14,5.308589707140364
15,-3.2278646508410544
16,2.8875511850933437
17,-1.4702572501612395
18,5.584008807358271
2,1, 1, 1, 0,20, 0.00,15.00,Tuesday
7,-1.9250000000000003
8,0.0
9,0.0
10,0.0
11,0.0
12,0.0
13,0.0
14,5.300804199535299
15,-2.926331155200851
16,2.957825158296316
17,-1.294992282203907
18,5.559826110798106
2,1, 1, 1, 0,20,15.00,30.00,Tuesday
7,-1.6500000000000002
8,0.0
9,0.0
10,0.0
11,0.0
12,0.0
13,0.0
14,5.292658423919952
15,-2.6278435226855096
16,3.014902852308012
17,-1.089838659377392
18,5.539482457390299
2,1, 1, 1, 0,20,30.00,45.00,Tuesday
7,-1.375
8,0.0
9,0.0
10,0.0
11,0.0
12,0.0
13,0.0
14,5.2865229662127188
15,-2.3306174255266929
16,3.0779654384803054
17,-0.8895719862733813
18,5.522404881803991
2,1, 1, 1, 0,20,45.00,60.00,Tuesday
7,-1.1
8,0.0
9,0.0
10,0.0
11,0.0
12,0.0
13,0.0
14,5.282131646189232
15,-2.0346696035999618
16,3.1437661310413889
17,-0.6868033454325087
18,5.50774098611859
2,1, 1, 1, 0,21, 0.00,15.00,Tuesday
7,-1.25
8,0.0
9,0.0
10,0.0
11,0.0
12,0.0
13,0.0
14,5.234794271852382
15,-2.317484528656919
16,3.1038352919439378
17,-0.7466045330464795
18,5.488460786279273
2,1, 1, 1, 0,21,15.00,30.00,Tuesday
7,-1.4
8,0.0
9,0.0
10,0.0
11,0.0
12,0.0
13,0.0
14,5.188917545218401
15,-2.534918570206167
16,3.0482729608575029
17,-0.8325484937976171
18,5.459709906698786
2,1, 1, 1, 0,21,30.00,45.00,Tuesday
7,-1.5499999999999999
8,0.0
9,0.0
10,0.0
11,0.0
12,0.0
13,0.0
14,5.12957005115417
15,-2.881478014146662
16,3.0060582659776289
17,-0.8846665861411225
18,5.420734723338539
2,1, 1, 1, 0,21,45.00,60.00,Tuesday
7,-1.7
8,0.0
9,0.0
10,0.0
11,0.0
12,0.0
13,0.0
14,5.0650618642714468
15,-3.335943431287892
16,2.9680048809769916
17,-0.909881869312585
18,5.373910388203385
2,1, 1, 1, 0,22, 0.00,15.00,Tuesday
7,-1.5499999999999999
8,0.0
9,0.0
10,0.0
11,0.0
12,0.0
13,0.0
14,5.070138015388048
15,-2.84542157577341
16,2.940120358329409
17,-0.9114206675994865
18,5.332553930956183
2,1, 1, 1, 0,22,15.00,30.00,Tuesday
7,-1.4
8,0.0
9,0.0
10,0.0
11,0.0
12,0.0
13,0.0
14,5.0653231446016779
15,-2.513342312063553
16,2.9446674430319037
17,-0.8618891300874338
18,5.303844703447778
2,1, 1, 1, 0,22,30.00,45.00,Tuesday
7,-1.25
8,0.0
9,0.0
10,0.0
11,0.0
12,0.0
13,0.0
14,5.0591225145164249
15,-2.292391349831541
16,2.9672585066904277
17,-0.7806745146164076
18,5.28578362025474
2,1, 1, 1, 0,22,45.00,60.00,Tuesday
7,-1.1
8,0.0
9,0.0
10,0.0
11,0.0
12,0.0
13,0.0
14,5.05676160719603
15,-2.0082762080348348
16,2.984598715155016
17,-0.7117928719455904
18,5.273233916722471
2,1, 1, 1, 0,23, 0.00,15.00,Tuesday
7,-1.25
8,0.0
9,0.0
10,0.0
11,0.0
12,0.0
13,0.0
14,5.008367683563059
15,-2.3117657143230319
16,2.8687731510816549
17,-0.9685830311511836
18,5.255416493177561
2,1, 1, 1, 0,23,15.00,30.00,Tuesday
7,-1.4
8,0.0
9,0.0
10,0.0
11,0.0
12,0.0
13,0.0
14,4.962887285011385
15,-2.6163802778778986
16,2.743835437800442
17,-1.2415876890211735
18,5.227022320448544
2,1, 1, 1, 0,23,30.00,45.00,Tuesday
7,-1.5499999999999999
8,0.0
9,0.0
10,0.0
11,0.0
12,0.0
13,0.0
14,4.912672121955164
15,-2.9216683598739037
16,2.6173135179842577
17,-1.516143623010521
18,5.189189883843805
2,1, 1, 1, 0,23,45.00,60.00,Tuesday
7,-1.7
8,0.0
9,0.0
10,0.0
11,0.0
12,0.0
13,0.0
14,4.858456004312032
15,-3.227299243690718
16,2.4868967223197275
17,-1.7927669241138347
18,5.1449850511241899
2,1, 1, 1, 0,24, 0.00,15.00,Tuesday
7,-1.7
8,0.0
9,0.0
10,0.0
11,0.0
12,0.0
13,0.0
14,4.820886659778479
15,-3.281314775662128
16,2.435867289582916
17,-1.8589492269408652
18,5.100332380636201
2,1, 1, 1, 0,24,15.00,30.00,Tuesday
7,-1.7
8,0.0
9,0.0
10,0.0
11,0.0
12,0.0
13,0.0
14,4.781162158813609
15,-3.3359801643927007
16,2.388700681068485
17,-1.9196886932982694
18,5.058380122185418
2,1, 1, 1, 0,24,30.00,45.00,Tuesday
7,-1.7
8,0.0
9,0.0
10,0.0
11,0.0
12,0.0
13,0.0
14,4.742537668593168
15,-3.3905329152152055
16,2.3413129616567405
17,-1.9800953703928599
18,5.019121957863639
2,1, 1, 1, 0,24,45.00,60.00,Tuesday
7,-1.7
8,0.0
9,0.0
10,0.0
11,0.0
12,0.0
13,0.0
14,4.7047603439142329
15,-3.4450872411992607
16,2.2948025504063027
17,-2.040047571520006
18,4.981483082070405
End of Data
 Number of Records Written=        1152
