Program Version,EnergyPlus, Version 9.5.0-de239b2e5f, YMD=2023.02.17 18:13
1,5,Environment Title[],Latitude[deg],Longitude[deg],Time Zone[],Elevation[m]
2,8,Day of Simulation[],Month[],Day of Month[],DST Indicator[1=yes 0=no],Hour[],StartMinute[],EndMinute[],DayType
3,5,Cumulative Day of Simulation[],Month[],Day of Month[],DST Indicator[1=yes 0=no],DayType  ! When Daily Report Variables Requested
4,2,Cumulative Days of Simulation[],Month[]  ! When Monthly Report Variables Requested
5,1,Cumulative Days of Simulation[] ! When Run Period Report Variables Requested
6,1,Calendar Year of Simulation[] ! When Annual Report Variables Requested
7,1,Environment,Site Outdoor Air Drybulb Temperature [C] !TimeStep
8,1,ZONE ONE,Zone Windows Total Transmitted Solar Radiation Rate [W] !TimeStep
9,1,ZN001:WALL001,Surface Outside Face Sunlit Fraction [] !TimeStep
10,1,ZN001:WALL001,Surface Outside Face Incident Solar Radiation Rate per Area [W/m2] !TimeStep
11,1,ZN001:WALL001:WIN001,Surface Outside Face Sunlit Fraction [] !TimeStep
12,1,ZN001:WALL001:WIN001,Surface Outside Face Incident Solar Radiation Rate per Area [W/m2] !TimeStep
13,1,ZN001:WALL001:WIN001,Surface Window Transmitted Solar Radiation Rate [W] !TimeStep
14,1,ZN001:WALL001,Surface Inside Face Temperature [C] !TimeStep
15,1,ZN001:WALL001,Surface Outside Face Temperature [C] !TimeStep
16,1,ZN001:WALL001:WIN001,Surface Inside Face Temperature [C] !TimeStep
17,1,ZN001:WALL001:WIN001,Surface Outside Face Temperature [C] !TimeStep
18,1,ZONE ONE,Zone Mean Air Temperature [C] !TimeStep
End of Data Dictionary
1,RUN PERIOD 1,  41.98, -87.92,  -6.00, 201.00
2,1, 1, 1, 0, 1, 0.00,15.00,Tuesday
7,-4.324999999999999
8,0.0
9,0.0
10,0.0
11,0.0
12,0.0
13,0.0
14,2.6995690040496278
15,-5.954828350677598
16,0.20419067341879328
17,-4.375410719574575
18,3.0677033695122128
2,1, 1, 1, 0, 1,15.00,30.00,Tuesday
7,-6.949999999999999
8,0.0
9,0.0
10,0.0
11,0.0
12,0.0
13,0.0
14,2.518631387358763
15,-8.422703978306818
16,-0.5907100892742392
17,-6.32629867058256
18,2.9722205503540097
2,1, 1, 1, 0, 1,30.00,45.00,Tuesday
7,-9.575
8,0.0
9,0.0
10,0.0
11,0.0
12,0.0
13,0.0
14,2.314716300900684
15,-10.899017251971307
16,-1.3887616276475683
17,-8.283294068895032
18,2.841295418640022
2,1, 1, 1, 0, 1,45.00,60.00,Tuesday
7,-12.2
8,0.0
9,0.0
10,0.0
11,0.0
12,0.0
13,0.0
14,2.0928160965227269
15,-13.381854636530328
16,-2.2008393513988269
17,-10.248964875810487
18,2.685224280277831
2,1, 1, 1, 0, 2, 0.00,15.00,Tuesday
7,-12.075
8,0.0
9,0.0
10,0.0
11,0.0
12,0.0
13,0.0
14,2.029153279519544
15,-13.183421091490408
16,-2.2371914301365907
17,-10.113297768900339
18,2.545289601944034
2,1, 1, 1, 0, 2,15.00,30.00,Tuesday
7,-11.95
8,0.0
9,0.0
10,0.0
11,0.0
12,0.0
13,0.0
14,1.9503000833748455
15,-13.006297460236777
16,-2.2437363168784829
17,-9.994667981992109
18,2.4403710908965574
2,1, 1, 1, 0, 2,30.00,45.00,Tuesday
7,-11.825
8,0.0
9,0.0
10,0.0
11,0.0
12,0.0
13,0.0
14,1.890156299484448
15,-12.827876324496839
16,-2.248092583198968
17,-9.866303592035138
18,2.3648741565111357
2,1, 1, 1, 0, 2,45.00,60.00,Tuesday
7,-11.7
8,0.0
9,0.0
10,0.0
11,0.0
12,0.0
13,0.0
14,1.8422736490850629
15,-12.64952865245717
16,-2.240375598717378
17,-9.732792265026319
18,2.306861608645312
2,1, 1, 1, 0, 3, 0.00,15.00,Tuesday
7,-11.549999999999999
8,0.0
9,0.0
10,0.0
11,0.0
12,0.0
13,0.0
14,1.7965157392866873
15,-12.524742403771383
16,-2.223576760577828
17,-9.594140172715925
18,2.256607936420071
2,1, 1, 1, 0, 3,15.00,30.00,Tuesday
7,-11.399999999999999
8,0.0
9,0.0
10,0.0
11,0.0
12,0.0
13,0.0
14,1.7543714895014118
15,-12.401382566199445
16,-2.2046837713634206
17,-9.455212514538232
18,2.209213542804128
2,1, 1, 1, 0, 3,30.00,45.00,Tuesday
7,-11.25
8,0.0
9,0.0
10,0.0
11,0.0
12,0.0
13,0.0
14,1.7133324924808935
15,-12.279615742429135
16,-2.1839983813421215
17,-9.316099716076224
18,2.1631349816366365
2,1, 1, 1, 0, 3,45.00,60.00,Tuesday
7,-11.1
8,0.0
9,0.0
10,0.0
11,0.0
12,0.0
13,0.0
14,1.6729313674142066
15,-12.159500260475803
16,-2.16264511113377
17,-9.177220803705609
18,2.1180855454935578
2,1, 1, 1, 0, 4, 0.00,15.00,Tuesday
7,-11.1
8,0.0
9,0.0
10,0.0
11,0.0
12,0.0
13,0.0
14,1.6286212309428177
15,-12.129327597638337
16,-2.2160630314531888
17,-9.20928804088976
18,2.0727988296299535
2,1, 1, 1, 0, 4,15.00,30.00,Tuesday
7,-11.1
8,0.0
9,0.0
10,0.0
11,0.0
12,0.0
13,0.0
14,1.5846706382959597
15,-12.10033256799461
16,-2.2618255941437157
17,-9.248183032704447
18,2.026819720497966
2,1, 1, 1, 0, 4,30.00,45.00,Tuesday
7,-11.1
8,0.0
9,0.0
10,0.0
11,0.0
12,0.0
13,0.0
14,1.5404216288412703
15,-12.072955723961158
16,-2.3064248252699146
17,-9.28712042361417
18,1.9803370075440872
2,1, 1, 1, 0, 4,45.00,60.00,Tuesday
7,-11.1
8,0.0
9,0.0
10,0.0
11,0.0
12,0.0
13,0.0
14,1.4960090760520848
15,-12.047059883874989
16,-2.3506906780869487
17,-9.325203625417032
18,1.9336585464813164
2,1, 1, 1, 0, 5, 0.00,15.00,Tuesday
7,-10.975
8,0.0
9,0.0
10,0.0
11,0.0
12,0.0
13,0.0
14,1.4574893362782418
15,-11.924933000407802
16,-2.3434928137098725
17,-9.24739766696797
18,1.8882211855488802
2,1, 1, 1, 0, 5,15.00,30.00,Tuesday
7,-10.85
8,0.0
9,0.0
10,0.0
11,0.0
12,0.0
13,0.0
14,1.4192293132685379
15,-11.802891065617965
16,-2.339223238135162
17,-9.161985117409359
18,1.8445942088360417
2,1, 1, 1, 0, 5,30.00,45.00,Tuesday
7,-10.725
8,0.0
9,0.0
10,0.0
11,0.0
12,0.0
13,0.0
14,1.3820749568731779
15,-11.680824574772173
16,-2.3348727063463459
17,-9.075493551065165
18,1.802517081652903
2,1, 1, 1, 0, 5,45.00,60.00,Tuesday
7,-10.6
8,0.0
9,0.0
10,0.0
11,0.0
12,0.0
13,0.0
14,1.3458457638389668
15,-11.558766945741624
16,-2.3297627388292314
17,-8.988634578422478
18,1.7615492771471424
2,1, 1, 1, 0, 6, 0.00,15.00,Tuesday
7,-10.6
8,0.0
9,0.0
10,0.0
11,0.0
12,0.0
13,0.0
14,1.3022993410712496
15,-11.559650598071539
16,-2.3600068057598948
17,-8.994245973499006
18,1.7200300259654329
2,1, 1, 1, 0, 6,15.00,30.00,Tuesday
7,-10.6
8,0.0
9,0.0
10,0.0
11,0.0
12,0.0
13,0.0
14,1.2593109422663694
15,-11.560451691609649
16,-2.3964931117236576
17,-9.001379504600209
18,1.676993381063591
2,1, 1, 1, 0, 6,30.00,45.00,Tuesday
7,-10.6
8,0.0
9,0.0
10,0.0
11,0.0
12,0.0
13,0.0
14,1.215820798076533
15,-11.561301628245705
16,-2.425802150294089
17,-9.01186522616348
18,1.632823806681559
2,1, 1, 1, 0, 6,45.00,60.00,Tuesday
7,-10.6
8,0.0
9,0.0
10,0.0
11,0.0
12,0.0
13,0.0
14,1.1718900977955456
15,-11.56214698429207
16,-2.4618116741309565
17,-9.021289964793823
18,1.587959983859356
2,1, 1, 1, 0, 7, 0.00,15.00,Tuesday
7,-10.6
8,0.0
9,0.0
10,0.0
11,0.0
12,0.0
13,0.0
14,1.1300369195998095
15,-11.537251993172453
16,-2.5049437342063358
17,-9.05344648315588
18,1.5430897569489018
2,1, 1, 1, 0, 7,15.00,30.00,Tuesday
7,-10.6
8,0.0
9,0.0
10,0.0
11,0.0
12,0.0
13,0.0
14,1.0879836845808269
15,-11.51365040097888
16,-2.5458302048850784
17,-9.086011442020663
18,1.4986220898933587
2,1, 1, 1, 0, 7,30.00,45.00,Tuesday
7,-10.6
8,0.0
9,0.0
10,0.0
11,0.0
12,0.0
13,0.0
14,1.0461682635474104
15,-11.491245057590986
16,-2.586137922239459
17,-9.117875713234298
18,1.4545907206648817
2,1, 1, 1, 0, 7,45.00,60.00,Tuesday
7,-10.6
8,0.0
9,0.0
10,0.0
11,0.0
12,0.0
13,0.0
14,1.0046246569723019
15,-11.469965271081455
16,-2.6258819145875806
17,-9.148814326306252
18,1.4109067225589663
2,1, 1, 1, 0, 8, 0.00,15.00,Tuesday
7,-10.45
8,0.0
9,0.0
10,0.0
11,0.0
12,0.0
13,0.0
14,0.9625088593669684
15,-11.421955513817674
16,-2.625577246150499
17,-9.111298899395024
18,1.3674427496482356
2,1, 1, 1, 0, 8,15.00,30.00,Tuesday
7,-10.3
8,108.40371609626598
9,1.0
10,22.819555959623899
11,1.0
12,22.819555959623899
13,108.40371609626598
14,1.0337006718677014
15,-9.748828347042825
16,-2.2197724134300076
17,-8.685867814898643
18,1.3409246887830538
2,1, 1, 1, 0, 8,30.00,45.00,Tuesday
7,-10.15
8,533.1337584535826
9,1.0
10,109.75755355442667
11,1.0
12,109.75755355442667
13,533.1337584535826
14,1.4146866408936223
15,-3.3863272949987239
16,-0.5855420996240923
17,-7.252944495250574
18,1.377468823026913
2,1, 1, 1, 0, 8,45.00,60.00,Tuesday
7,-10.0
8,972.3709587741021
9,1.0
10,195.8764694434918
11,1.0
12,195.8764694434918
13,972.3709587741021
14,1.8971877146075667
15,3.1047827739750137
16,1.1455143695834523
17,-5.820677663823858
18,1.4827481002485612
2,1, 1, 1, 0, 9, 0.00,15.00,Tuesday
7,-9.725
8,1413.101027025902
9,1.0
10,278.97248314719988
11,1.0
12,278.97248314719988
13,1413.101027025902
14,2.264987331608406
15,8.282278419862683
16,2.8188097349490137
17,-4.563419194628068
18,1.6366952624943035
2,1, 1, 1, 0, 9,15.00,30.00,Tuesday
7,-9.45
8,1880.9540982906956
9,1.0
10,364.91995730569456
11,1.0
12,364.91995730569456
13,1880.9540982906956
14,2.665777539553128
15,13.363645780595876
16,4.412819959457806
17,-3.3458421131063575
18,1.8319559047377979
2,1, 1, 1, 0, 9,30.00,45.00,Tuesday
7,-9.175
8,2195.017653741399
9,1.0
10,420.35879993239237
11,1.0
12,420.35879993239237
13,2195.017653741399
14,2.94527269796377
15,16.122806245344447
16,5.4340243983340319
17,-2.600715855015892
18,2.0488298100185027
2,1, 1, 1, 0, 9,45.00,60.00,Tuesday
7,-8.9
8,2522.7339307777626
9,1.0
10,478.00138373643099
11,1.0
12,478.00138373643099
13,2522.7339307777626
14,3.27316953692337
15,19.118362966337263
16,6.465142121821202
17,-1.8386055951569916
18,2.2778047935479646
2,1, 1, 1, 0,10, 0.00,15.00,Tuesday
7,-8.350000000000002
8,2859.0825306744966
9,1.0
10,536.9185644770597
11,1.0
12,536.9185644770597
13,2859.0825306744966
14,3.5437438896055677
15,20.23811660592447
16,7.497266554789803
17,-1.1153945395867596
18,2.5197861742637448
2,1, 1, 1, 0,10,15.00,30.00,Tuesday
7,-7.800000000000001
8,3208.4255696711909
9,1.0
10,598.0969199229219
11,1.0
12,598.0969199229219
13,3208.4255696711909
14,3.840051801913268
15,21.492701723501633
16,8.547413846281018
17,-0.3928921798287206
18,2.78299104077891
2,1, 1, 1, 0,10,30.00,45.00,Tuesday
7,-7.25
8,3441.759924212147
9,1.0
10,637.6133352894237
11,1.0
12,637.6133352894237
13,3441.759924212147
14,4.066692737372496
15,21.553946357591465
16,9.269907962859066
17,0.0756697016634007
18,3.05305781718021
2,1, 1, 1, 0,10,45.00,60.00,Tuesday
7,-6.7
8,3672.285095472995
9,1.0
10,676.6412284283772
11,1.0
12,676.6412284283772
13,3672.285095472995
14,4.313946180796238
15,21.715350345266374
16,9.970853315923819
17,0.5415366721183546
18,3.318583699326162
2,1, 1, 1, 0,11, 0.00,15.00,Tuesday
7,-6.275
8,3898.976605856272
9,1.0
10,715.0112779846514
11,1.0
12,715.0112779846514
13,3898.976605856272
14,4.63843475598742
15,23.812946817222558
16,10.75829244337234
17,1.2928418173219143
18,3.582758519791345
2,1, 1, 1, 0,11,15.00,30.00,Tuesday
7,-5.85
8,4120.418695281419
9,1.0
10,752.5077794605232
11,1.0
12,752.5077794605232
13,4120.418695281419
14,4.950566282782442
15,25.748095249950479
16,11.53075575733294
17,2.0248963953579279
18,3.850374478859542
2,1, 1, 1, 0,11,30.00,45.00,Tuesday
7,-5.425
8,4061.3349039878405
9,1.0
10,742.5988714321785
11,1.0
12,742.5988714321785
13,4061.3349039878405
14,5.132177704960277
15,25.600065705250388
16,11.6596074282661
17,2.2851162846746435
18,4.1042600674104199
2,1, 1, 1, 0,11,45.00,60.00,Tuesday
7,-5.0
8,3973.318600181463
9,1.0
10,727.8169025450712
11,1.0
12,727.8169025450712
13,3973.318600181463
14,5.309565437108593
15,25.370858647942648
16,11.702169325846853
17,2.5064168895288505
18,4.3319847562199389
2,1, 1, 1, 0,12, 0.00,15.00,Tuesday
7,-4.575
8,3819.366570563894
9,1.0
10,700.3759009170325
11,1.0
12,700.3759009170325
13,3819.366570563894
14,5.432077080510163
15,24.628254687131368
16,11.57458388477096
17,2.641977509780986
18,4.526971999866819
2,1, 1, 1, 0,12,15.00,30.00,Tuesday
7,-4.15
8,3702.7452501117716
9,1.0
10,681.6705029034473
11,1.0
12,681.6705029034473
13,3702.7452501117716
14,5.575183041399223
15,24.297775651279946
16,11.560767837994377
17,2.868564060479912
18,4.697015189457729
2,1, 1, 1, 0,12,30.00,45.00,Tuesday
7,-3.7249999999999998
8,3247.235519661027
9,1.0
10,602.01865277251
11,1.0
12,602.01865277251
13,3247.235519661027
14,5.492573245671744
15,21.269472717178066
16,10.700829226413362
17,2.5056803687391495
18,4.821364512988575
2,1, 1, 1, 0,12,45.00,60.00,Tuesday
7,-3.3
8,2649.842220663087
9,1.0
10,493.55004396206007
11,1.0
12,493.55004396206007
13,2649.842220663087
14,5.308124890708396
15,17.090952222634067
16,9.33801364565835
17,1.8239434821876444
18,4.877592863345428
2,1, 1, 1, 0,13, 0.00,15.00,Tuesday
7,-3.0249999999999996
8,2181.646900212445
9,1.0
10,412.335026418112
11,1.0
12,412.335026418112
13,2181.646900212445
14,5.17691835210324
15,14.246309713401493
16,8.300530926135139
17,1.363833081904943
18,4.879745938847124
2,1, 1, 1, 0,13,15.00,30.00,Tuesday
7,-2.75
8,1592.5266577004155
9,1.0
10,305.94037763660148
11,1.0
12,305.94037763660148
13,1592.5266577004155
14,4.896161315009269
15,10.073028099745353
16,6.825315028577165
17,0.6076629308874999
18,4.8365956551704178
2,1, 1, 1, 0,13,30.00,45.00,Tuesday
7,-2.475
8,1451.1649141380659
9,1.0
10,281.0763483922329
11,1.0
12,281.0763483922329
13,1451.1649141380659
14,4.876353009811448
15,9.559950179682458
16,6.524374602558396
17,0.6675238776518313
18,4.782479376825411
2,1, 1, 1, 0,13,45.00,60.00,Tuesday
7,-2.2
8,1312.7592709094116
9,1.0
10,256.7721209415886
11,1.0
12,256.7721209415886
13,1312.7592709094116
14,4.844759960115699
15,8.952739765724268
16,6.279658980647582
17,0.7516154086436018
18,4.73648232441945
2,1, 1, 1, 0,14, 0.00,15.00,Tuesday
7,-1.9250000000000003
8,1070.6457842180467
9,1.0
10,210.73276284570657
11,1.0
12,210.73276284570657
13,1070.6457842180467
14,4.725237067471642
15,7.404756220984345
16,5.654005607717124
17,0.562970838099659
18,4.695471087768503
2,1, 1, 1, 0,14,15.00,30.00,Tuesday
7,-1.6500000000000002
8,948.2485746018327
9,1.0
10,189.38488290342594
11,1.0
12,189.38488290342594
13,948.2485746018327
14,4.698083364725245
15,6.998222638730161
16,5.4071368035397999
17,0.6339349295380998
18,4.659584615344671
2,1, 1, 1, 0,14,30.00,45.00,Tuesday
7,-1.375
8,904.8253795647224
9,1.0
10,179.3940297802914
11,1.0
12,179.3940297802914
13,904.8253795647224
14,4.697379646330288
15,7.11960056723224
16,5.356250593575339
17,0.8294389236775146
18,4.631215403932572
2,1, 1, 1, 0,14,45.00,60.00,Tuesday
7,-1.1
8,860.5056534724099
9,1.0
10,169.43349014176136
11,1.0
12,169.43349014176136
13,860.5056534724099
14,4.693417562270927
15,7.217431187529149
16,5.302081155702524
17,1.02192456040558
18,4.61022008372243
2,1, 1, 1, 0,15, 0.00,15.00,Tuesday
7,-1.1
8,904.7650604994558
9,1.0
10,178.15692317953907
11,1.0
12,178.15692317953907
13,904.7650604994558
14,4.746843863574313
15,8.032656432509784
16,5.473155948285296
17,1.1892159555555964
18,4.599291878335322
2,1, 1, 1, 0,15,15.00,30.00,Tuesday
7,-1.1
8,849.3236181208366
9,1.0
10,166.40516310952945
11,1.0
12,166.40516310952945
13,849.3236181208366
14,4.705464263575796
15,7.669840234763392
16,5.296966176578508
17,1.1024588597824732
18,4.592118263263133
2,1, 1, 1, 0,15,30.00,45.00,Tuesday
7,-1.1
8,714.7046675380757
9,1.0
10,140.8967369711617
11,1.0
12,140.8967369711617
13,714.7046675380757
14,4.602777878385788
15,6.46265067053927
16,4.845861514984222
17,0.809380948161504
18,4.578368627320967
2,1, 1, 1, 0,15,45.00,60.00,Tuesday
7,-1.1
8,586.9655212300743
9,1.0
10,116.57355796743004
11,1.0
12,116.57355796743004
13,586.9655212300743
14,4.497593003424582
15,5.250399129939732
16,4.370668462308004
17,0.5034353932047679
18,4.549808621963269
2,1, 1, 1, 0,16, 0.00,15.00,Tuesday
7,-1.1
8,464.95417916439495
9,1.0
10,93.14939272689483
11,1.0
12,93.14939272689483
13,464.95417916439495
14,4.399636138971855
15,4.196129608087243
16,3.9597834831358797
17,0.2818363824740686
18,4.505719762592264
2,1, 1, 1, 0,16,15.00,30.00,Tuesday
7,-1.1
8,288.0276650551215
9,1.0
10,57.94047897402063
11,1.0
12,57.94047897402063
13,288.0276650551215
14,4.225549133274073
15,2.068245295135481
16,3.3201940290921359
17,-0.14503216700290978
18,4.439723306012575
2,1, 1, 1, 0,16,30.00,45.00,Tuesday
7,-1.1
8,222.91249157722326
9,1.0
10,45.38251793443488
11,1.0
12,45.38251793443488
13,222.91249157722326
14,4.161073679017295
15,1.453219947975893
16,3.081060620594144
17,-0.25250903479758338
18,4.360958638586929
2,1, 1, 1, 0,16,45.00,60.00,Tuesday
7,-1.1
8,155.3816171753998
9,1.0
10,32.02625108222755
11,1.0
12,32.02625108222755
13,155.3816171753998
14,4.060905626705127
15,0.5839695764345187
16,2.836743221950826
17,-0.37640002101693428
18,4.2772481811969389
2,1, 1, 1, 0,17, 0.00,15.00,Tuesday
7,-1.1
8,85.15688895490742
9,1.0
10,17.762198626050539
11,1.0
12,17.762198626050539
13,85.15688895490742
14,3.931080450127884
15,-0.675428569057188
16,2.519085407947159
17,-0.6191307640704622
18,4.188894838719919
2,1, 1, 1, 0,17,15.00,30.00,Tuesday
7,-1.1
8,0.0
9,0.0
10,0.0
11,0.0
12,0.0
13,0.0
14,3.7516282108484337
15,-2.51632291520073
16,2.106529207594292
17,-0.9837976892770257
18,4.088115906562904
2,1, 1, 1, 0,17,30.00,45.00,Tuesday
7,-1.1
8,0.0
9,0.0
10,0.0
11,0.0
12,0.0
13,0.0
14,3.7009002157044375
15,-2.6555507486634815
16,2.0311518979909808
17,-1.0085478440787484
18,3.990219957735975
2,1, 1, 1, 0,17,45.00,60.00,Tuesday
7,-1.1
8,0.0
9,0.0
10,0.0
11,0.0
12,0.0
13,0.0
14,3.635536000112246
15,-2.852949105594222
16,1.9897136344870888
17,-1.0156004805008366
18,3.90846486369466
2,1, 1, 1, 0,18, 0.00,15.00,Tuesday
7,-1.25
8,0.0
9,0.0
10,0.0
11,0.0
12,0.0
13,0.0
14,3.5818182880798865
15,-2.999954702443546
16,1.8981896413333744
17,-1.1430261434625209
18,3.8438775037408168
2,1, 1, 1, 0,18,15.00,30.00,Tuesday
7,-1.4
8,0.0
9,0.0
10,0.0
11,0.0
12,0.0
13,0.0
14,3.5332241180911869
15,-3.1523542312813288
16,1.8211525302801875
17,-1.2637806688003366
18,3.7916438698180685
2,1, 1, 1, 0,18,30.00,45.00,Tuesday
7,-1.5499999999999999
8,0.0
9,0.0
10,0.0
11,0.0
12,0.0
13,0.0
14,3.4889051443972978
15,-3.3041847992925508
16,1.7482212873047729
17,-1.3832572185229424
18,3.746578640911438
2,1, 1, 1, 0,18,45.00,60.00,Tuesday
7,-1.7
8,0.0
9,0.0
10,0.0
11,0.0
12,0.0
13,0.0
14,3.4467579599914179
15,-3.456190291911585
16,1.6780482133177657
17,-1.5017963181217056
18,3.7052341540382907
2,1, 1, 1, 0,19, 0.00,15.00,Tuesday
7,-1.825
8,0.0
9,0.0
10,0.0
11,0.0
12,0.0
13,0.0
14,3.4312447462922437
15,-3.2991247012889275
16,1.608304446442503
17,-1.6165844713640354
18,3.6692621635896729
2,1, 1, 1, 0,19,15.00,30.00,Tuesday
7,-1.9500000000000002
8,0.0
9,0.0
10,0.0
11,0.0
12,0.0
13,0.0
14,3.4149697503020937
15,-3.224580270699357
16,1.5484244953182156
17,-1.72952705091501
18,3.6403270344013296
2,1, 1, 1, 0,19,30.00,45.00,Tuesday
7,-2.075
8,0.0
9,0.0
10,0.0
11,0.0
12,0.0
13,0.0
14,3.3935751904862756
15,-3.2962919973921775
16,1.498124511508081
17,-1.830373104717978
18,3.616983157915313
2,1, 1, 1, 0,19,45.00,60.00,Tuesday
7,-2.2
8,0.0
9,0.0
10,0.0
11,0.0
12,0.0
13,0.0
14,3.375219467999827
15,-3.2671990797618468
16,1.4413855456015768
17,-1.9443641749949166
18,3.5961948620795578
2,1, 1, 1, 0,20, 0.00,15.00,Tuesday
7,-1.9250000000000003
8,0.0
9,0.0
10,0.0
11,0.0
12,0.0
13,0.0
14,3.3741083689316686
15,-2.964321703835173
16,1.5191029990123753
17,-1.7603508913061888
18,3.578719201977581
2,1, 1, 1, 0,20,15.00,30.00,Tuesday
7,-1.6500000000000002
8,0.0
9,0.0
10,0.0
11,0.0
12,0.0
13,0.0
14,3.3731108977512176
15,-2.6646144328306007
16,1.5846619376907257
17,-1.547462207722731
18,3.564959676154074
2,1, 1, 1, 0,20,30.00,45.00,Tuesday
7,-1.375
8,0.0
9,0.0
10,0.0
11,0.0
12,0.0
13,0.0
14,3.374019657388896
15,-2.3662503269093158
16,1.6569922009518905
17,-1.3384432625850878
18,3.554413329338776
2,1, 1, 1, 0,20,45.00,60.00,Tuesday
7,-1.1
8,0.0
9,0.0
10,0.0
11,0.0
12,0.0
13,0.0
14,3.3773966447727719
15,-2.0692184659105825
16,1.7320950283354933
17,-1.1267896253229993
18,3.5463787749973134
2,1, 1, 1, 0,21, 0.00,15.00,Tuesday
7,-1.25
8,0.0
9,0.0
10,0.0
11,0.0
12,0.0
13,0.0
14,3.3346206634538646
15,-2.3575139249971408
16,1.6812262536526533
17,-1.2192024087544838
18,3.533810448040083
2,1, 1, 1, 0,21,15.00,30.00,Tuesday
7,-1.4
8,0.0
9,0.0
10,0.0
11,0.0
12,0.0
13,0.0
14,3.2936706552475627
15,-2.57778208702597
16,1.6228942839999832
17,-1.3232118627563523
18,3.5117292487623366
2,1, 1, 1, 0,21,30.00,45.00,Tuesday
7,-1.5499999999999999
8,0.0
9,0.0
10,0.0
11,0.0
12,0.0
13,0.0
14,3.2387466799965187
15,-2.9314746797305157
16,1.5667480936481866
17,-1.418624171953752
18,3.4790515937386616
2,1, 1, 1, 0,21,45.00,60.00,Tuesday
7,-1.7
8,0.0
9,0.0
10,0.0
11,0.0
12,0.0
13,0.0
14,3.1786846642219217
15,-3.3940572179196346
16,1.5134744067045177
17,-1.496216878943244
18,3.4379277525265437
2,1, 1, 1, 0,22, 0.00,15.00,Tuesday
7,-1.5499999999999999
8,0.0
9,0.0
10,0.0
11,0.0
12,0.0
13,0.0
14,3.191055801767455
15,-2.8938960787254728
16,1.5095625996759737
17,-1.4420919544444928
18,3.4020184460484934
2,1, 1, 1, 0,22,15.00,30.00,Tuesday
7,-1.4
8,0.0
9,0.0
10,0.0
11,0.0
12,0.0
13,0.0
14,3.1942791322800048
15,-2.555253122283024
16,1.5387929908496859
17,-1.3518459288630993
18,3.3790057072148036
2,1, 1, 1, 0,22,30.00,45.00,Tuesday
7,-1.25
8,0.0
9,0.0
10,0.0
11,0.0
12,0.0
13,0.0
14,3.1954046341750907
15,-2.3313614214986626
16,1.5738189733839932
17,-1.2496980584185167
18,3.367011136664305
2,1, 1, 1, 0,22,45.00,60.00,Tuesday
7,-1.1
8,0.0
9,0.0
10,0.0
11,0.0
12,0.0
13,0.0
14,3.2004060034484538
15,-2.0419509459691635
16,1.6125188224485215
17,-1.1417546130712709
18,3.3609758575543129
2,1, 1, 1, 0,23, 0.00,15.00,Tuesday
7,-1.25
8,0.0
9,0.0
10,0.0
11,0.0
12,0.0
13,0.0
14,3.157162511259697
15,-2.345592400938759
16,1.4980220792731985
17,-1.3950551614439065
18,3.3501470428939146
2,1, 1, 1, 0,23,15.00,30.00,Tuesday
7,-1.4
8,0.0
9,0.0
10,0.0
11,0.0
12,0.0
13,0.0
14,3.1169148153315819
15,-2.650138870800992
16,1.374156403965003
17,-1.670292527364154
18,3.3288989318849
2,1, 1, 1, 0,23,30.00,45.00,Tuesday
7,-1.5499999999999999
8,0.0
9,0.0
10,0.0
11,0.0
12,0.0
13,0.0
14,3.072290910639494
15,-2.9553528153365757
16,1.2502200921927625
17,-1.9441342047850868
18,3.2980417917063695
2,1, 1, 1, 0,23,45.00,60.00,Tuesday
7,-1.7
8,0.0
9,0.0
10,0.0
11,0.0
12,0.0
13,0.0
14,3.023735545499414
15,-3.260912745931583
16,1.1229574448839799
17,-2.218931507219054
18,3.260492573305187
2,1, 1, 1, 0,24, 0.00,15.00,Tuesday
7,-1.7
8,0.0
9,0.0
10,0.0
11,0.0
12,0.0
13,0.0
14,2.993259389684369
15,-3.3147565699010395
16,1.0777565901912568
17,-2.280247560891553
18,3.222211221133883
2,1, 1, 1, 0,24,15.00,30.00,Tuesday
7,-1.7
8,0.0
9,0.0
10,0.0
11,0.0
12,0.0
13,0.0
14,2.959649582846945
15,-3.369356546676257
16,1.0354854997294752
17,-2.3386070252359447
18,3.186412581443942
2,1, 1, 1, 0,24,30.00,45.00,Tuesday
7,-1.7
8,0.0
9,0.0
10,0.0
11,0.0
12,0.0
13,0.0
14,2.9270013753952575
15,-3.4238052620773664
16,0.9927431293136806
17,-2.3969727743120758
18,3.153174804318551
2,1, 1, 1, 0,24,45.00,60.00,Tuesday
7,-1.7
8,0.0
9,0.0
10,0.0
11,0.0
12,0.0
13,0.0
14,2.895116645403115
15,-3.4782551319323629
16,0.950778583075703
17,-2.454973285556491
18,3.1215019429252859
End of Data
 Number of Records Written=        1152
