Program Version,EnergyPlus, Version 9.5.0-de239b2e5f, YMD=2023.02.17 18:12
1,5,Environment Title[],Latitude[deg],Longitude[deg],Time Zone[],Elevation[m]
2,8,Day of Simulation[],Month[],Day of Month[],DST Indicator[1=yes 0=no],Hour[],StartMinute[],EndMinute[],DayType
3,5,Cumulative Day of Simulation[],Month[],Day of Month[],DST Indicator[1=yes 0=no],DayType  ! When Daily Report Variables Requested
4,2,Cumulative Days of Simulation[],Month[]  ! When Monthly Report Variables Requested
5,1,Cumulative Days of Simulation[] ! When Run Period Report Variables Requested
6,1,Calendar Year of Simulation[] ! When Annual Report Variables Requested
7,1,Environment,Site Outdoor Air Drybulb Temperature [C] !TimeStep
8,1,ZONE ONE,Zone Windows Total Transmitted Solar Radiation Rate [W] !TimeStep
9,1,ZN001:WALL001,Surface Outside Face Sunlit Fraction [] !TimeStep
10,1,ZN001:WALL001,Surface Outside Face Incident Solar Radiation Rate per Area [W/m2] !TimeStep
11,1,ZN001:WALL001:WIN001,Surface Outside Face Sunlit Fraction [] !TimeStep
12,1,ZN001:WALL001:WIN001,Surface Outside Face Incident Solar Radiation Rate per Area [W/m2] !TimeStep
13,1,ZN001:WALL001:WIN001,Surface Window Transmitted Solar Radiation Rate [W] !TimeStep
14,1,ZN001:WALL001,Surface Inside Face Temperature [C] !TimeStep
15,1,ZN001:WALL001,Surface Outside Face Temperature [C] !TimeStep
16,1,ZN001:WALL001:WIN001,Surface Inside Face Temperature [C] !TimeStep
17,1,ZN001:WALL001:WIN001,Surface Outside Face Temperature [C] !TimeStep
18,1,ZONE ONE,Zone Mean Air Temperature [C] !TimeStep
End of Data Dictionary
1,RUN PERIOD 1,  41.98, -87.92,  -6.00, 201.00
2,1, 1, 1, 0, 1, 0.00,15.00,Tuesday
7,-4.324999999999999
8,0.0
9,0.0
10,0.0
11,0.0
12,0.0
13,0.0
14,0.145645597023692
15,-6.001582174980042
16,-1.6121943002433455
17,-5.015912047558402
18,0.4497943239439161
2,1, 1, 1, 0, 1,15.00,30.00,Tuesday
7,-6.949999999999999
8,0.0
9,0.0
10,0.0
11,0.0
12,0.0
13,0.0
14,-0.029990392908683308
15,-8.469545387762869
16,-2.394245818874481
17,-6.985059765005076
18,0.36460523360211657
2,1, 1, 1, 0, 1,30.00,45.00,Tuesday
7,-9.575
8,0.0
9,0.0
10,0.0
11,0.0
12,0.0
13,0.0
14,-0.2293892876516907
15,-10.946377690893378
16,-3.1761378835716984
17,-8.96053617656986
18,0.24322830059643267
2,1, 1, 1, 0, 1,45.00,60.00,Tuesday
7,-12.2
8,0.0
9,0.0
10,0.0
11,0.0
12,0.0
13,0.0
14,-0.4443616912915096
15,-13.429642628966628
16,-3.9711518028450429
17,-10.945073219915344
18,0.09561635531124022
2,1, 1, 1, 0, 2, 0.00,15.00,Tuesday
7,-12.075
8,0.0
9,0.0
10,0.0
11,0.0
12,0.0
13,0.0
14,-0.4988085355511024
15,-13.231626700609885
16,-4.006555710909197
17,-10.812923622360416
18,-0.03742119169466695
2,1, 1, 1, 0, 2,15.00,30.00,Tuesday
7,-11.95
8,0.0
9,0.0
10,0.0
11,0.0
12,0.0
13,0.0
14,-0.5691691922797842
15,-13.054333445133834
16,-4.007351152302192
17,-10.689201336312863
18,-0.1363609632047042
2,1, 1, 1, 0, 2,30.00,45.00,Tuesday
7,-11.825
8,0.0
9,0.0
10,0.0
11,0.0
12,0.0
13,0.0
14,-0.6213029031708394
15,-12.875729297876895
16,-4.006606926119275
17,-10.555967889920737
18,-0.20579034775994979
2,1, 1, 1, 0, 2,45.00,60.00,Tuesday
7,-11.7
8,0.0
9,0.0
10,0.0
11,0.0
12,0.0
13,0.0
14,-0.6611780364873003
15,-12.697182677271112
16,-3.99389489818077
17,-10.417760384409235
18,-0.25708110465551428
2,1, 1, 1, 0, 3, 0.00,15.00,Tuesday
7,-11.549999999999999
8,0.0
9,0.0
10,0.0
11,0.0
12,0.0
13,0.0
14,-0.6990059969143038
15,-12.573518867171636
16,-3.9762482677595587
17,-10.284394039551046
18,-0.29995532095589669
2,1, 1, 1, 0, 3,15.00,30.00,Tuesday
7,-11.399999999999999
8,0.0
9,0.0
10,0.0
11,0.0
12,0.0
13,0.0
14,-0.7330089061056305
15,-12.451326448540155
16,-3.956084597835684
17,-10.15150603188988
18,-0.3395300891725956
2,1, 1, 1, 0, 3,30.00,45.00,Tuesday
7,-11.25
8,0.0
9,0.0
10,0.0
11,0.0
12,0.0
13,0.0
14,-0.7657784447778607
15,-12.330784914089222
16,-3.933972760079996
17,-10.018635059145084
18,-0.3775598135001905
2,1, 1, 1, 0, 3,45.00,60.00,Tuesday
7,-11.1
8,0.0
9,0.0
10,0.0
11,0.0
12,0.0
13,0.0
14,-0.7978686758284173
15,-12.211955684412388
16,-3.9111587648516776
17,-9.886144982864835
18,-0.4144608466983507
2,1, 1, 1, 0, 4, 0.00,15.00,Tuesday
7,-11.1
8,0.0
9,0.0
10,0.0
11,0.0
12,0.0
13,0.0
14,-0.833655422783986
15,-12.180126894204863
16,-3.953276045261873
17,-9.90630104874515
18,-0.4513672575873503
2,1, 1, 1, 0, 4,15.00,30.00,Tuesday
7,-11.1
8,0.0
9,0.0
10,0.0
11,0.0
12,0.0
13,0.0
14,-0.8690610185716255
15,-12.149538489428102
16,-3.9888594496872544
17,-9.93323669666097
18,-0.4887295119868051
2,1, 1, 1, 0, 4,30.00,45.00,Tuesday
7,-11.1
8,0.0
9,0.0
10,0.0
11,0.0
12,0.0
13,0.0
14,-0.9046790392489819
15,-12.120644246588603
16,-4.023415292579045
17,-9.960331927604216
18,-0.5264498517299843
2,1, 1, 1, 0, 4,45.00,60.00,Tuesday
7,-11.1
8,0.0
9,0.0
10,0.0
11,0.0
12,0.0
13,0.0
14,-0.9404225996525988
15,-12.09330601309397
16,-4.057691167661119
17,-9.986773755442585
18,-0.564308595388795
2,1, 1, 1, 0, 5, 0.00,15.00,Tuesday
7,-10.975
8,0.0
9,0.0
10,0.0
11,0.0
12,0.0
13,0.0
14,-0.9702517741798443
15,-11.970971772199843
16,-4.04528386855003
17,-9.905457049635232
18,-0.6010260937556798
2,1, 1, 1, 0, 5,15.00,30.00,Tuesday
7,-10.85
8,0.0
9,0.0
10,0.0
11,0.0
12,0.0
13,0.0
14,-0.9998586173731766
15,-11.848742957219305
16,-4.035333078126769
17,-9.816679113926796
18,-0.636063055234609
2,1, 1, 1, 0, 5,30.00,45.00,Tuesday
7,-10.725
8,0.0
9,0.0
10,0.0
11,0.0
12,0.0
13,0.0
14,-1.0274513995691826
15,-11.726491977122091
16,-4.025295366831301
17,-9.726886139400563
18,-0.6695197126203429
2,1, 1, 1, 0, 5,45.00,60.00,Tuesday
7,-10.6
8,0.0
9,0.0
10,0.0
11,0.0
12,0.0
13,0.0
14,-1.0551869923428772
15,-11.604285093437046
16,-4.014265054297994
17,-9.636666238704379
18,-0.7018393847599068
2,1, 1, 1, 0, 6, 0.00,15.00,Tuesday
7,-10.6
8,0.0
9,0.0
10,0.0
11,0.0
12,0.0
13,0.0
14,-1.091388529106248
15,-11.605030276229917
16,-4.038907918447762
17,-9.639658554336905
18,-0.7348374881668293
2,1, 1, 1, 0, 6,15.00,30.00,Tuesday
7,-10.6
8,0.0
9,0.0
10,0.0
11,0.0
12,0.0
13,0.0
14,-1.1260013575343453
15,-11.605639524284753
16,-4.065553242982901
17,-9.64635469357529
18,-0.7693465730242964
2,1, 1, 1, 0, 6,30.00,45.00,Tuesday
7,-10.6
8,0.0
9,0.0
10,0.0
11,0.0
12,0.0
13,0.0
14,-1.1613061102840215
15,-11.606335366945514
16,-4.092003524300708
17,-9.653813902134175
18,-0.8050907488695095
2,1, 1, 1, 0, 6,45.00,60.00,Tuesday
7,-10.6
8,0.0
9,0.0
10,0.0
11,0.0
12,0.0
13,0.0
14,-1.1969970212888038
15,-11.607027273045813
16,-4.118741210712187
17,-9.661682272912799
18,-0.841517254651844
2,1, 1, 1, 0, 7, 0.00,15.00,Tuesday
7,-10.6
8,0.0
9,0.0
10,0.0
11,0.0
12,0.0
13,0.0
14,-1.2305120004566255
15,-11.580800714561099
16,-4.154833331013492
17,-9.682103351689876
18,-0.8779918808476324
2,1, 1, 1, 0, 7,15.00,30.00,Tuesday
7,-10.6
8,0.0
9,0.0
10,0.0
11,0.0
12,0.0
13,0.0
14,-1.2642311881279003
15,-11.555939384691716
16,-4.186375045559828
17,-9.703553230371427
18,-0.9140709933926584
2,1, 1, 1, 0, 7,30.00,45.00,Tuesday
7,-10.6
8,0.0
9,0.0
10,0.0
11,0.0
12,0.0
13,0.0
14,-1.2977395234792697
15,-11.532333836428473
16,-4.217332267355346
17,-9.724734968337316
18,-0.9496935403932848
2,1, 1, 1, 0, 7,45.00,60.00,Tuesday
7,-10.6
8,0.0
9,0.0
10,0.0
11,0.0
12,0.0
13,0.0
14,-1.3309834855555603
15,-11.509910417125683
16,-4.247819937777194
17,-9.745270549465886
18,-0.9849485890253927
2,1, 1, 1, 0, 8, 0.00,15.00,Tuesday
7,-10.45
8,0.0
9,0.0
10,0.0
11,0.0
12,0.0
13,0.0
14,-1.365091596533242
15,-11.462756545896618
16,-4.246728564678733
17,-9.711948391033218
18,-1.0201115454513124
2,1, 1, 1, 0, 8,15.00,30.00,Tuesday
7,-10.3
8,62.74310911265812
9,1.0
10,22.819555959623899
11,1.0
12,22.819555959623899
13,62.74310911265812
14,-1.2951659494291386
15,-9.790077094444822
16,-3.848039280318858
17,-9.308412125036967
18,-1.041154262277595
2,1, 1, 1, 0, 8,30.00,45.00,Tuesday
7,-10.15
8,308.5730894002722
9,1.0
10,109.75755355442667
11,1.0
12,109.75755355442667
13,308.5730894002722
14,-0.9422893539674746
15,-3.4347300301765499
16,-2.2308649084110359
17,-7.917549384805909
18,-1.0099261776437052
2,1, 1, 1, 0, 8,45.00,60.00,Tuesday
7,-10.0
8,562.799684008513
9,1.0
10,195.8764694434918
11,1.0
12,195.8764694434918
13,562.799684008513
14,-0.5132211199061939
15,3.055940747982255
16,-0.4651290242985624
17,-6.4990351692270569
18,-0.9218473910500753
2,1, 1, 1, 0, 9, 0.00,15.00,Tuesday
7,-9.725
8,817.8903373303126
9,1.0
10,278.97248314719988
11,1.0
12,278.97248314719988
13,817.8903373303126
14,-0.18460552927362534
15,8.243497096703918
16,1.123357928871883
17,-5.271252053313674
18,-0.7894979854468894
2,1, 1, 1, 0, 9,15.00,30.00,Tuesday
7,-9.45
8,1088.679544158928
9,1.0
10,364.91995730569456
11,1.0
12,364.91995730569456
13,1088.679544158928
14,0.16987761629701876
15,13.324978464403055
16,2.685220565583677
17,-4.054200743766501
18,-0.6197185342453856
2,1, 1, 1, 0, 9,30.00,45.00,Tuesday
7,-9.175
8,1270.4567436635296
9,1.0
10,420.35879993239237
11,1.0
12,420.35879993239237
13,1270.4567436635296
14,0.40906044515684455
15,16.085563918657809
16,3.699217887187501
17,-3.298244780850382
18,-0.4306448175442497
2,1, 1, 1, 0, 9,45.00,60.00,Tuesday
7,-8.9
8,1460.1360172942112
9,1.0
10,478.00138373643099
11,1.0
12,478.00138373643099
13,1460.1360172942112
14,0.6913179685552715
15,19.081576546965719
16,4.724732732607549
17,-2.525542761105271
18,-0.23051688007263647
2,1, 1, 1, 0,10, 0.00,15.00,Tuesday
7,-8.350000000000002
8,1654.8116028101584
9,1.0
10,536.9185644770597
11,1.0
12,536.9185644770597
13,1654.8116028101584
14,0.9123357181869917
15,20.203831854541023
16,5.761944419785209
17,-1.7627928484477025
18,-0.01441533814248896
2,1, 1, 1, 0,10,15.00,30.00,Tuesday
7,-7.800000000000001
8,1857.0082543899935
9,1.0
10,598.0969199229219
11,1.0
12,598.0969199229219
13,1857.0082543899935
14,1.1571462353503335
15,21.46032290809242
16,6.815560757053277
17,-1.004472825838434
18,0.2154192785650268
2,1, 1, 1, 0,10,30.00,45.00,Tuesday
7,-7.25
8,1992.0601086428258
9,1.0
10,637.6133352894237
11,1.0
12,637.6133352894237
13,1992.0601086428258
14,1.3356829090130227
15,21.523219562476535
16,7.539540866593484
17,-0.5012671191450409
18,0.4449440219040862
2,1, 1, 1, 0,10,45.00,60.00,Tuesday
7,-6.7
8,2125.4860325366059
9,1.0
10,676.6412284283772
11,1.0
12,676.6412284283772
13,2125.4860325366059
14,1.529068055271027
15,21.685934208132968
16,8.240964216831913
17,-0.0033902073117815236
18,0.665774184006479
2,1, 1, 1, 0,11, 0.00,15.00,Tuesday
7,-6.275
8,2256.693067527073
9,1.0
10,715.0112779846514
11,1.0
12,715.0112779846514
13,2256.693067527073
14,1.799744530182821
15,23.783047016215215
16,9.013077043199019
17,0.7559885765596164
18,0.8824337027559077
2,1, 1, 1, 0,11,15.00,30.00,Tuesday
7,-5.85
8,2384.8617842402206
9,1.0
10,752.5077794605232
11,1.0
12,752.5077794605232
13,2384.8617842402206
14,2.055847352494089
15,25.717827931742137
16,9.769923571939103
17,1.4949092428938685
18,1.1001178362294449
2,1, 1, 1, 0,11,30.00,45.00,Tuesday
7,-5.425
8,2350.664610034857
9,1.0
10,742.5988714321785
11,1.0
12,742.5988714321785
13,2350.664610034857
14,2.1953075097698484
15,25.569626995612354
16,9.86170386470718
17,1.7508006059472337
18,1.3040991486396559
2,1, 1, 1, 0,11,45.00,60.00,Tuesday
7,-5.0
8,2299.7215542778105
9,1.0
10,727.8169025450712
11,1.0
12,727.8169025450712
13,2299.7215542778105
14,2.331523226067454
15,25.339909461399289
16,9.867418040629389
17,1.9671619643970644
18,1.4841768411947223
2,1, 1, 1, 0,12, 0.00,15.00,Tuesday
7,-4.575
8,2210.61548540657
9,1.0
10,700.3759009170325
11,1.0
12,700.3759009170325
13,2210.61548540657
14,2.421379614165639
15,24.596911048104965
16,9.704433855238108
17,2.100012484022841
18,1.635757449427999
2,1, 1, 1, 0,12,15.00,30.00,Tuesday
7,-4.15
8,2143.1160997999725
9,1.0
10,681.6705029034473
11,1.0
12,681.6705029034473
13,2143.1160997999725
14,2.529228179478539
15,24.26602077209774
16,9.649564644402404
17,2.317225378399712
18,1.7656781580931885
2,1, 1, 1, 0,12,30.00,45.00,Tuesday
7,-3.7249999999999998
8,1879.4711091231216
9,1.0
10,602.01865277251
11,1.0
12,602.01865277251
13,1879.4711091231216
14,2.441945298905236
15,21.23760216694754
16,8.736597131598728
17,1.941935194881978
18,1.8571307512676004
2,1, 1, 1, 0,12,45.00,60.00,Tuesday
7,-3.3
8,1533.7051677701307
9,1.0
10,493.55004396206007
11,1.0
12,493.55004396206007
13,1533.7051677701307
14,2.2667609320578459
15,17.058707015967874
16,7.343100922964368
17,1.2547215148993019
18,1.8934431673889317
2,1, 1, 1, 0,13, 0.00,15.00,Tuesday
7,-3.0249999999999996
8,1262.7178701484746
9,1.0
10,412.335026418112
11,1.0
12,412.335026418112
13,1262.7178701484746
14,2.144647460398374
15,14.213500120048332
16,6.271941256703826
17,0.7836365160436571
18,1.886551742406742
2,1, 1, 1, 0,13,15.00,30.00,Tuesday
7,-2.75
8,921.7403004904563
9,1.0
10,305.94037763660148
11,1.0
12,305.94037763660148
13,921.7403004904563
14,1.8992758055648769
15,10.039819565962521
16,4.779490669095935
17,0.01712611579245049
18,1.843252334769317
2,1, 1, 1, 0,13,30.00,45.00,Tuesday
7,-2.475
8,839.9213774858611
9,1.0
10,281.0763483922329
11,1.0
12,281.0763483922329
13,839.9213774858611
14,1.8917553285374469
15,9.525956849114511
16,4.478480437585972
17,0.07859977938153406
18,1.7896979065791097
2,1, 1, 1, 0,13,45.00,60.00,Tuesday
7,-2.2
8,759.813419127724
9,1.0
10,256.7721209415886
11,1.0
12,256.7721209415886
13,759.813419127724
14,1.863446954804811
15,8.918369975684217
16,4.224204865808247
17,0.15701924257245992
18,1.745384787008467
2,1, 1, 1, 0,14, 0.00,15.00,Tuesday
7,-1.9250000000000003
8,619.6802810752625
9,1.0
10,210.73276284570657
11,1.0
12,210.73276284570657
13,619.6802810752625
14,1.7672068438962577
15,7.369478954921537
16,3.6029000762360967
17,-0.03326618833602879
18,1.7068565665202047
2,1, 1, 1, 0,14,15.00,30.00,Tuesday
7,-1.6500000000000002
8,548.8378620643327
9,1.0
10,189.38488290342594
11,1.0
12,189.38488290342594
13,548.8378620643327
14,1.7494954601793358
15,6.961994879704429
16,3.3519058126336178
17,0.02488819731752301
18,1.6742079208795043
2,1, 1, 1, 0,14,30.00,45.00,Tuesday
7,-1.375
8,523.7049020298316
9,1.0
10,179.3940297802914
11,1.0
12,179.3940297802914
13,523.7049020298316
14,1.7546180380885764
15,7.081080706408138
16,3.303161222254971
17,0.21546429850741334
18,1.6492018186849072
2,1, 1, 1, 0,14,45.00,60.00,Tuesday
7,-1.1
8,498.0530377746454
9,1.0
10,169.43349014176136
11,1.0
12,169.43349014176136
13,498.0530377746454
14,1.757503154582318
15,7.177630374090053
16,3.2514108130448564
17,0.4027314542149725
18,1.63197687569057
2,1, 1, 1, 0,15, 0.00,15.00,Tuesday
7,-1.1
8,523.6699898898578
9,1.0
10,178.15692317953907
11,1.0
12,178.15692317953907
13,523.6699898898578
14,1.8046746104110632
15,7.9910514685016988
16,3.410802683080931
17,0.5528038488114362
18,1.6245670712947534
2,1, 1, 1, 0,15,15.00,30.00,Tuesday
7,-1.1
8,491.58097492069296
9,1.0
10,166.40516310952945
11,1.0
12,166.40516310952945
13,491.58097492069296
14,1.7723187325992494
15,7.627507023394848
16,3.2382593053170014
17,0.4579102290549599
18,1.6208112358973
2,1, 1, 1, 0,15,30.00,45.00,Tuesday
7,-1.1
8,413.6647206704364
9,1.0
10,140.8967369711617
11,1.0
12,140.8967369711617
13,413.6647206704364
14,1.6867384188399426
15,6.419312838139534
16,2.805178467950384
17,0.15733097774716499
18,1.6112810032762377
2,1, 1, 1, 0,15,45.00,60.00,Tuesday
7,-1.1
8,339.73043609641595
9,1.0
10,116.57355796743004
11,1.0
12,116.57355796743004
13,339.73043609641595
14,1.601542840232054
15,5.206935307525036
16,2.3666131486532437
17,-0.15094386792009119
18,1.587746035250481
2,1, 1, 1, 0,16, 0.00,15.00,Tuesday
7,-1.1
8,269.1113538004406
9,1.0
10,93.14939272689483
11,1.0
12,93.14939272689483
13,269.1113538004406
14,1.5139511979006933
15,4.144906328701158
16,1.9557310258614394
17,-0.3948555683136874
18,1.550802787663237
2,1, 1, 1, 0,16,15.00,30.00,Tuesday
7,-1.1
8,166.70785713612708
9,1.0
10,57.94047897402063
11,1.0
12,57.94047897402063
13,166.70785713612708
14,1.3523981820376335
15,2.012310926243273
16,1.2709806049130066
17,-0.8594283274391046
18,1.4986967148466999
2,1, 1, 1, 0,16,30.00,45.00,Tuesday
7,-1.1
8,129.0197724326636
9,1.0
10,45.38251793443488
11,1.0
12,45.38251793443488
13,129.0197724326636
14,1.301840860889633
15,1.3950286337547742
16,1.0133061456637052
17,-1.001918979828929
18,1.437794999614169
2,1, 1, 1, 0,16,45.00,60.00,Tuesday
7,-1.1
8,89.93350146663998
9,1.0
10,32.02625108222755
11,1.0
12,32.02625108222755
13,89.93350146663998
14,1.216358091087983
15,0.5197773204726721
16,0.7513073016409066
17,-1.1665457531584594
18,1.373879337747312
2,1, 1, 1, 0,17, 0.00,15.00,Tuesday
7,-1.1
8,49.2880518103743
9,1.0
10,17.762198626050539
11,1.0
12,17.762198626050539
13,49.2880518103743
14,1.1019529303367933
15,-0.7473386356621307
16,0.4222084924546152
17,-1.4624711159622166
18,1.304432891733508
2,1, 1, 1, 0,17,15.00,30.00,Tuesday
7,-1.1
8,0.0
9,0.0
10,0.0
11,0.0
12,0.0
13,0.0
14,0.9396438896719039
15,-2.591252913257776
16,0.024198304374181136
17,-1.8119274509036814
18,1.219208709978609
2,1, 1, 1, 0,17,30.00,45.00,Tuesday
7,-1.1
8,0.0
9,0.0
10,0.0
11,0.0
12,0.0
13,0.0
14,0.8987799593071834
15,-2.73354211608665
16,-0.05892387901849361
17,-1.8764531174659283
18,1.1295128287757062
2,1, 1, 1, 0,17,45.00,60.00,Tuesday
7,-1.1
8,0.0
9,0.0
10,0.0
11,0.0
12,0.0
13,0.0
14,0.8416671166351086
15,-2.937137790926811
16,-0.11646386799895936
17,-1.9422476871546906
18,1.0511675964358079
2,1, 1, 1, 0,18, 0.00,15.00,Tuesday
7,-1.25
8,0.0
9,0.0
10,0.0
11,0.0
12,0.0
13,0.0
14,0.795040370154798
15,-3.083417779082156
16,-0.2011012307244755
17,-2.0751019456138808
18,0.9887687762321287
2,1, 1, 1, 0,18,15.00,30.00,Tuesday
7,-1.4
8,0.0
9,0.0
10,0.0
11,0.0
12,0.0
13,0.0
14,0.7529171648578068
15,-3.2357974095507284
16,-0.27407871669981889
17,-2.198197857811465
18,0.9395642003474382
2,1, 1, 1, 0,18,30.00,45.00,Tuesday
7,-1.5499999999999999
8,0.0
9,0.0
10,0.0
11,0.0
12,0.0
13,0.0
14,0.7162683481985007
15,-3.3874723629845144
16,-0.3433431640881963
17,-2.3203068950199396
18,0.8990569589777355
2,1, 1, 1, 0,18,45.00,60.00,Tuesday
7,-1.7
8,0.0
9,0.0
10,0.0
11,0.0
12,0.0
13,0.0
14,0.681154938929493
15,-3.5393907055485909
16,-0.40916908367512408
17,-2.4410398425037558
18,0.8635967773436651
2,1, 1, 1, 0,19, 0.00,15.00,Tuesday
7,-1.825
8,0.0
9,0.0
10,0.0
11,0.0
12,0.0
13,0.0
14,0.6748953281637107
15,-3.3728005358002437
16,-0.4361167114058162
17,-2.4663868425279817
18,0.8347233628820144
2,1, 1, 1, 0,19,15.00,30.00,Tuesday
7,-1.9500000000000002
8,0.0
9,0.0
10,0.0
11,0.0
12,0.0
13,0.0
14,0.6695403835192265
15,-3.289846985462287
16,-0.46356588012662316
17,-2.5099590642325895
18,0.8139184881072176
2,1, 1, 1, 0,19,30.00,45.00,Tuesday
7,-2.075
8,0.0
9,0.0
10,0.0
11,0.0
12,0.0
13,0.0
14,0.6570331385693876
15,-3.3593104602331649
16,-0.502688248715117
17,-2.5916007735875157
18,0.7992727121403466
2,1, 1, 1, 0,19,45.00,60.00,Tuesday
7,-2.2
8,0.0
9,0.0
10,0.0
11,0.0
12,0.0
13,0.0
14,0.6487782801534325
15,-3.322699995128945
16,-0.5301227275055567
17,-2.6510454185774394
18,0.7877617448516098
2,1, 1, 1, 0,20, 0.00,15.00,Tuesday
7,-1.9250000000000003
8,0.0
9,0.0
10,0.0
11,0.0
12,0.0
13,0.0
14,0.6566387057343455
15,-3.0178875932802144
16,-0.4465454466766232
17,-2.4357410381643378
18,0.7794749411418761
2,1, 1, 1, 0,20,15.00,30.00,Tuesday
7,-1.6500000000000002
8,0.0
9,0.0
10,0.0
11,0.0
12,0.0
13,0.0
14,0.6655088810519955
15,-2.716428110373968
16,-0.36381598395490757
17,-2.2111125300066307
18,0.7746822723610001
2,1, 1, 1, 0,20,30.00,45.00,Tuesday
7,-1.375
8,0.0
9,0.0
10,0.0
11,0.0
12,0.0
13,0.0
14,0.676555550903311
15,-2.4164168742317044
16,-0.2790878383270865
17,-1.984146768317828
18,0.7730187170829168
2,1, 1, 1, 0,20,45.00,60.00,Tuesday
7,-1.1
8,0.0
9,0.0
10,0.0
11,0.0
12,0.0
13,0.0
14,0.6890975410415243
15,-2.1178291416172536
16,-0.19197884622963103
17,-1.75511477723677
18,0.7738066370580112
2,1, 1, 1, 0,21, 0.00,15.00,Tuesday
7,-1.25
8,0.0
9,0.0
10,0.0
11,0.0
12,0.0
13,0.0
14,0.6556356682679069
15,-2.4139345438729786
16,-0.26345297332863995
17,-1.9058294151549263
18,0.7706523455160558
2,1, 1, 1, 0,21,15.00,30.00,Tuesday
7,-1.4
8,0.0
9,0.0
10,0.0
11,0.0
12,0.0
13,0.0
14,0.6195613184185488
15,-2.638362860757621
16,-0.32643209191422786
17,-2.0415215955970895
18,0.758422001895337
2,1, 1, 1, 0,21,30.00,45.00,Tuesday
7,-1.5499999999999999
8,0.0
9,0.0
10,0.0
11,0.0
12,0.0
13,0.0
14,0.5704525489760509
15,-3.0019657888191677
16,-0.40758399124274549
17,-2.2113866905282295
18,0.7352203383548204
2,1, 1, 1, 0,21,45.00,60.00,Tuesday
7,-1.7
8,0.0
9,0.0
10,0.0
11,0.0
12,0.0
13,0.0
14,0.5161783791523675
15,-3.475799140243356
16,-0.5010187943176447
17,-2.4106186906334416
18,0.7025371825975797
2,1, 1, 1, 0,22, 0.00,15.00,Tuesday
7,-1.5499999999999999
8,0.0
9,0.0
10,0.0
11,0.0
12,0.0
13,0.0
14,0.5393407691643088
15,-2.96210211242677
16,-0.44420698323745
17,-2.232001142061563
18,0.6745220004807421
2,1, 1, 1, 0,22,15.00,30.00,Tuesday
7,-1.4
8,0.0
9,0.0
10,0.0
11,0.0
12,0.0
13,0.0
14,0.5541169125183088
15,-2.6142334208707118
16,-0.3799679567163139
17,-2.062904034607868
18,0.6592925734404675
2,1, 1, 1, 0,22,30.00,45.00,Tuesday
7,-1.25
8,0.0
9,0.0
10,0.0
11,0.0
12,0.0
13,0.0
14,0.5649458987279926
15,-2.3861858343971065
16,-0.32753737121771567
17,-1.924234671721024
18,0.6551719600705884
2,1, 1, 1, 0,22,45.00,60.00,Tuesday
7,-1.1
8,0.0
9,0.0
10,0.0
11,0.0
12,0.0
13,0.0
14,0.5804760149815348
15,-2.0892459941384966
16,-0.2591467919345405
17,-1.7574874076447032
18,0.6574536797297729
2,1, 1, 1, 0,23, 0.00,15.00,Tuesday
7,-1.25
8,0.0
9,0.0
10,0.0
11,0.0
12,0.0
13,0.0
14,0.5462123326675553
15,-2.393292869356387
16,-0.3708525179118851
17,-2.0107365276511475
18,0.6562507833714207
2,1, 1, 1, 0,23,15.00,30.00,Tuesday
7,-1.4
8,0.0
9,0.0
10,0.0
11,0.0
12,0.0
13,0.0
14,0.5134838146020095
15,-2.6978559513685438
16,-0.4878150584318064
17,-2.284360792105531
18,0.645696481438085
2,1, 1, 1, 0,23,30.00,45.00,Tuesday
7,-1.5499999999999999
8,0.0
9,0.0
10,0.0
11,0.0
12,0.0
13,0.0
14,0.4754847901371055
15,-3.0029758552938339
16,-0.6052592992029986
17,-2.5584726286514298
18,0.6256141138617225
2,1, 1, 1, 0,23,45.00,60.00,Tuesday
7,-1.7
8,0.0
9,0.0
10,0.0
11,0.0
12,0.0
13,0.0
14,0.4350837593567642
15,-3.3083648199941546
16,-0.7259073654789177
17,-2.8334832102474367
18,0.5983138918290695
2,1, 1, 1, 0,24, 0.00,15.00,Tuesday
7,-1.7
8,0.0
9,0.0
10,0.0
11,0.0
12,0.0
13,0.0
14,0.41340662190147817
15,-3.3619344722124389
16,-0.7639720594249866
17,-2.8912505836660786
18,0.5694215128559524
2,1, 1, 1, 0,24,15.00,30.00,Tuesday
7,-1.7
8,0.0
9,0.0
10,0.0
11,0.0
12,0.0
13,0.0
14,0.3886096882467019
15,-3.4163844580783087
16,-0.7993581601982669
17,-2.9472318532366446
18,0.5423161630401988
2,1, 1, 1, 0,24,30.00,45.00,Tuesday
7,-1.7
8,0.0
9,0.0
10,0.0
11,0.0
12,0.0
13,0.0
14,0.3644027742640729
15,-3.4706935889180827
16,-0.8353862565735426
17,-3.003391632563421
18,0.5174286447210048
2,1, 1, 1, 0,24,45.00,60.00,Tuesday
7,-1.7
8,0.0
9,0.0
10,0.0
11,0.0
12,0.0
13,0.0
14,0.3407779261696046
15,-3.524999305588836
16,-0.870847153183945
17,-3.0592956887153379
18,0.49401932095323838
End of Data
 Number of Records Written=        1152
