Program Version,EnergyPlus, Version 9.5.0-de239b2e5f, YMD=2023.02.16 21:08
1,5,Environment Title[],Latitude[deg],Longitude[deg],Time Zone[],Elevation[m]
2,8,Day of Simulation[],Month[],Day of Month[],DST Indicator[1=yes 0=no],Hour[],StartMinute[],EndMinute[],DayType
3,5,Cumulative Day of Simulation[],Month[],Day of Month[],DST Indicator[1=yes 0=no],DayType  ! When Daily Report Variables Requested
4,2,Cumulative Days of Simulation[],Month[]  ! When Monthly Report Variables Requested
5,1,Cumulative Days of Simulation[] ! When Run Period Report Variables Requested
6,1,Calendar Year of Simulation[] ! When Annual Report Variables Requested
7,1,Environment,Site Outdoor Air Drybulb Temperature [C] !TimeStep
8,1,ZONE ONE,Zone Windows Total Transmitted Solar Radiation Rate [W] !TimeStep
9,1,ZN001:WALL001,Surface Outside Face Sunlit Fraction [] !TimeStep
10,1,ZN001:WALL001,Surface Outside Face Incident Solar Radiation Rate per Area [W/m2] !TimeStep
11,1,ZN001:WALL001:WIN001,Surface Outside Face Sunlit Fraction [] !TimeStep
12,1,ZN001:WALL001:WIN001,Surface Outside Face Incident Solar Radiation Rate per Area [W/m2] !TimeStep
13,1,ZN001:WALL001:WIN001,Surface Window Transmitted Solar Radiation Rate [W] !TimeStep
14,1,ZN001:WALL001,Surface Inside Face Temperature [C] !TimeStep
15,1,ZN001:WALL001,Surface Outside Face Temperature [C] !TimeStep
16,1,ZN001:WALL001:WIN001,Surface Inside Face Temperature [C] !TimeStep
17,1,ZN001:WALL001:WIN001,Surface Outside Face Temperature [C] !TimeStep
18,1,ZONE ONE,Zone Mean Air Temperature [C] !TimeStep
End of Data Dictionary
1,RUN PERIOD 1,  41.98, -87.92,  -6.00, 201.00
2,1, 1, 1, 0, 1, 0.00,15.00,Tuesday
7,-4.324999999999999
8,0.0
9,0.0
10,0.0
11,0.0
12,0.0
13,0.0
14,-0.029374283112043155
15,-6.0048295150034589
16,-1.9482142833170997
17,-4.903925881000305
18,0.26789328392356928
2,1, 1, 1, 0, 1,15.00,30.00,Tuesday
7,-6.949999999999999
8,0.0
9,0.0
10,0.0
11,0.0
12,0.0
13,0.0
14,-0.20741378366717976
15,-8.472783288744767
16,-2.8026166743266005
17,-6.819749690535218
18,0.1804676284404223
2,1, 1, 1, 0, 1,30.00,45.00,Tuesday
7,-9.575
8,0.0
9,0.0
10,0.0
11,0.0
12,0.0
13,0.0
14,-0.40797441621513866
15,-10.94968448150693
16,-3.657079281706501
17,-8.741851614599227
18,0.05567831745569803
2,1, 1, 1, 0, 1,45.00,60.00,Tuesday
7,-12.2
8,0.0
9,0.0
10,0.0
11,0.0
12,0.0
13,0.0
14,-0.6259162154102224
15,-13.433104221086254
16,-4.523984973932841
17,-10.673186396360507
18,-0.09609760271987665
2,1, 1, 1, 0, 2, 0.00,15.00,Tuesday
7,-12.075
8,0.0
9,0.0
10,0.0
11,0.0
12,0.0
13,0.0
14,-0.6818367333836004
15,-13.235157302963574
16,-4.54319357170732
17,-10.558027824717613
18,-0.23241837990938017
2,1, 1, 1, 0, 2,15.00,30.00,Tuesday
7,-11.95
8,0.0
9,0.0
10,0.0
11,0.0
12,0.0
13,0.0
14,-0.7537284014666085
15,-13.057884762532387
16,-4.542061062372227
17,-10.432023798973092
18,-0.3334243698155052
2,1, 1, 1, 0, 2,30.00,45.00,Tuesday
7,-11.825
8,0.0
9,0.0
10,0.0
11,0.0
12,0.0
13,0.0
14,-0.8067514328129698
15,-12.879277081375902
16,-4.535535163139343
17,-10.304446317918519
18,-0.4040003307617696
2,1, 1, 1, 0, 2,45.00,60.00,Tuesday
7,-11.7
8,0.0
9,0.0
10,0.0
11,0.0
12,0.0
13,0.0
14,-0.847169129704671
15,-12.700726531448693
16,-4.516448727427132
17,-10.172270041894649
18,-0.45590885964129559
2,1, 1, 1, 0, 3, 0.00,15.00,Tuesday
7,-11.549999999999999
8,0.0
9,0.0
10,0.0
11,0.0
12,0.0
13,0.0
14,-0.8853549284097319
15,-12.577160229373155
16,-4.490997452822285
17,-10.041040143714156
18,-0.49912000369134076
2,1, 1, 1, 0, 3,15.00,30.00,Tuesday
7,-11.399999999999999
8,0.0
9,0.0
10,0.0
11,0.0
12,0.0
13,0.0
14,-0.9196125825883633
15,-12.455069508499225
16,-4.4631086826186678
17,-9.90997901105618
18,-0.5388791502566214
2,1, 1, 1, 0, 3,30.00,45.00,Tuesday
7,-11.25
8,0.0
9,0.0
10,0.0
11,0.0
12,0.0
13,0.0
14,-0.9525720804941387
15,-12.334635170713993
16,-4.43332440443487
17,-9.77886167656169
18,-0.5770007927836978
2,1, 1, 1, 0, 3,45.00,60.00,Tuesday
7,-11.1
8,0.0
9,0.0
10,0.0
11,0.0
12,0.0
13,0.0
14,-0.9848075652529511
15,-12.215918268603116
16,-4.402859455332532
17,-9.648120563123712
18,-0.6139295538338647
2,1, 1, 1, 0, 4, 0.00,15.00,Tuesday
7,-11.1
8,0.0
9,0.0
10,0.0
11,0.0
12,0.0
13,0.0
14,-1.0208386646975956
15,-12.18398115876201
16,-4.446734031316964
17,-9.672226844228817
18,-0.650944444519026
2,1, 1, 1, 0, 4,15.00,30.00,Tuesday
7,-11.1
8,0.0
9,0.0
10,0.0
11,0.0
12,0.0
13,0.0
14,-1.056509262391489
15,-12.153291965424668
16,-4.483656313216045
17,-9.702784013453595
18,-0.6885461052605623
2,1, 1, 1, 0, 4,30.00,45.00,Tuesday
7,-11.1
8,0.0
9,0.0
10,0.0
11,0.0
12,0.0
13,0.0
14,-1.0924438998302169
15,-12.124303189677955
16,-4.519410730854702
17,-9.733545983203158
18,-0.7266072224066497
2,1, 1, 1, 0, 4,45.00,60.00,Tuesday
7,-11.1
8,0.0
9,0.0
10,0.0
11,0.0
12,0.0
13,0.0
14,-1.1285423800018729
15,-12.096875138972069
16,-4.554831750441053
17,-9.763642528749074
18,-0.7648624925274834
2,1, 1, 1, 0, 5, 0.00,15.00,Tuesday
7,-10.975
8,0.0
9,0.0
10,0.0
11,0.0
12,0.0
13,0.0
14,-1.1586462487837426
15,-11.97454356548769
16,-4.537644693812865
17,-9.685817360939382
18,-0.8019209863198811
2,1, 1, 1, 0, 5,15.00,30.00,Tuesday
7,-10.85
8,0.0
9,0.0
10,0.0
11,0.0
12,0.0
13,0.0
14,-1.188503575845572
15,-11.852316964039883
16,-4.523074166164349
17,-9.600795105319606
18,-0.8372022205931213
2,1, 1, 1, 0, 5,30.00,45.00,Tuesday
7,-10.725
8,0.0
9,0.0
10,0.0
11,0.0
12,0.0
13,0.0
14,-1.216287845005563
15,-11.73006691067118
16,-4.508475606802335
17,-9.51468986774944
18,-0.8708220328849585
2,1, 1, 1, 0, 5,45.00,60.00,Tuesday
7,-10.6
8,0.0
9,0.0
10,0.0
11,0.0
12,0.0
13,0.0
14,-1.244192674383614
15,-11.60786136304133
16,-4.492904331423574
17,-9.428093581752421
18,-0.9032534742904871
2,1, 1, 1, 0, 6, 0.00,15.00,Tuesday
7,-10.6
8,0.0
9,0.0
10,0.0
11,0.0
12,0.0
13,0.0
14,-1.280634257288669
15,-11.608613481951825
16,-4.51654329556203
17,-9.432040773963877
18,-0.936381134042664
2,1, 1, 1, 0, 6,15.00,30.00,Tuesday
7,-10.6
8,0.0
9,0.0
10,0.0
11,0.0
12,0.0
13,0.0
14,-1.315474540131588
15,-11.609226524840972
16,-4.54224057011902
17,-9.439638191819086
18,-0.9710650467533751
2,1, 1, 1, 0, 6,30.00,45.00,Tuesday
7,-10.6
8,0.0
9,0.0
10,0.0
11,0.0
12,0.0
13,0.0
14,-1.3510200115629474
15,-11.609927670644503
16,-4.567788973006088
17,-9.447977827584566
18,-1.0070218608227535
2,1, 1, 1, 0, 6,45.00,60.00,Tuesday
7,-10.6
8,0.0
9,0.0
10,0.0
11,0.0
12,0.0
13,0.0
14,-1.3869610130064667
15,-11.610624877260087
16,-4.593615410091843
17,-9.456734828045797
18,-1.0436814304268403
2,1, 1, 1, 0, 7, 0.00,15.00,Tuesday
7,-10.6
8,0.0
9,0.0
10,0.0
11,0.0
12,0.0
13,0.0
14,-1.4207450572239693
15,-11.584308308456972
16,-4.630974301442393
17,-9.480666189343197
18,-1.0804255255639695
2,1, 1, 1, 0, 7,15.00,30.00,Tuesday
7,-10.6
8,0.0
9,0.0
10,0.0
11,0.0
12,0.0
13,0.0
14,-1.4547412495574524
15,-11.559363150375138
16,-4.663439950371298
17,-9.505399891505022
18,-1.1168106661096822
2,1, 1, 1, 0, 7,30.00,45.00,Tuesday
7,-10.6
8,0.0
9,0.0
10,0.0
11,0.0
12,0.0
13,0.0
14,-1.4885411700708756
15,-11.535677863007848
16,-4.695217968701513
17,-9.529844079720704
18,-1.1527632355965894
2,1, 1, 1, 0, 7,45.00,60.00,Tuesday
7,-10.6
8,0.0
9,0.0
10,0.0
11,0.0
12,0.0
13,0.0
14,-1.5220855295195433
15,-11.513178422663659
16,-4.726475185193749
17,-9.553586323389027
18,-1.188360009361701
2,1, 1, 1, 0, 8, 0.00,15.00,Tuesday
7,-10.45
8,0.0
9,0.0
10,0.0
11,0.0
12,0.0
13,0.0
14,-1.5564459390821435
15,-11.466111390064145
16,-4.721290913397979
17,-9.519521296500387
18,-1.223808606293011
2,1, 1, 1, 0, 8,15.00,30.00,Tuesday
7,-10.3
8,62.74310911265812
9,1.0
10,22.819555959623899
11,1.0
12,22.819555959623899
13,62.74310911265812
14,-1.4862765908108989
15,-9.793419898801194
16,-4.313244897127561
17,-9.105338773479162
18,-1.2449505710138387
2,1, 1, 1, 0, 8,30.00,45.00,Tuesday
7,-10.15
8,308.5730894002722
9,1.0
10,109.75755355442667
11,1.0
12,109.75755355442667
13,308.5730894002722
14,-1.1314547220251652
15,-3.438376295164255
16,-2.6785630365702675
17,-7.67444699206294
18,-1.2133600539368948
2,1, 1, 1, 0, 8,45.00,60.00,Tuesday
7,-10.0
8,562.799684008513
9,1.0
10,195.8764694434918
11,1.0
12,195.8764694434918
13,562.799684008513
14,-0.7046376848372054
15,3.051003755691995
16,-0.9034476715365258
17,-6.211859873574326
18,-1.1242819777605767
2,1, 1, 1, 0, 9, 0.00,15.00,Tuesday
7,-9.725
8,817.8903373303126
9,1.0
10,278.97248314719988
11,1.0
12,278.97248314719988
13,817.8903373303126
14,-0.37362726324177239
15,8.240612608617809
16,0.7170198316114238
17,-4.940343344093719
18,-0.991473425494708
2,1, 1, 1, 0, 9,15.00,30.00,Tuesday
7,-9.45
8,1088.679544158928
9,1.0
10,364.91995730569456
11,1.0
12,364.91995730569456
13,1088.679544158928
14,-0.019749849231741297
15,13.322001037791106
16,2.3006457309012946
17,-3.6825725176049675
18,-0.821549734883021
2,1, 1, 1, 0, 9,30.00,45.00,Tuesday
7,-9.175
8,1270.4567436635296
9,1.0
10,420.35879993239237
11,1.0
12,420.35879993239237
13,1270.4567436635296
14,0.21984725581968377
15,16.082786160946989
16,3.3231992343514209
17,-2.902878195773951
18,-0.6325510455178669
2,1, 1, 1, 0, 9,45.00,60.00,Tuesday
7,-8.9
8,1460.1360172942112
9,1.0
10,478.00138373643099
11,1.0
12,478.00138373643099
13,1460.1360172942112
14,0.5021481644606343
15,19.07887009738903
16,4.3591507131118309
17,-2.105607123014522
18,-0.4326536969636418
2,1, 1, 1, 0,10, 0.00,15.00,Tuesday
7,-8.350000000000002
8,1654.8116028101584
9,1.0
10,536.9185644770597
11,1.0
12,536.9185644770597
13,1654.8116028101584
14,0.723104044140321
15,20.201373421072686
16,5.397130077879979
17,-1.3371551601385364
18,-0.21680902880261608
2,1, 1, 1, 0,10,15.00,30.00,Tuesday
7,-7.800000000000001
8,1857.0082543899935
9,1.0
10,598.0969199229219
11,1.0
12,598.0969199229219
13,1857.0082543899935
14,0.9677924490611994
15,21.458034455544046
16,6.451139717288129
17,-0.5727135236785443
18,0.012717422610985454
2,1, 1, 1, 0,10,30.00,45.00,Tuesday
7,-7.25
8,1992.0601086428258
9,1.0
10,637.6133352894237
11,1.0
12,637.6133352894237
13,1992.0601086428258
14,1.1461784763488284
15,21.52109277850344
16,7.170179505353531
17,-0.07294804104935793
18,0.24186349001567179
2,1, 1, 1, 0,10,45.00,60.00,Tuesday
7,-6.7
8,2125.4860325366059
9,1.0
10,676.6412284283772
11,1.0
12,676.6412284283772
13,2125.4860325366059
14,1.3393908266328079
15,21.683936155023468
16,7.867939291012817
17,0.4213245238976242
18,0.46225134363750716
2,1, 1, 1, 0,11, 0.00,15.00,Tuesday
7,-6.275
8,2256.693067527073
9,1.0
10,715.0112779846514
11,1.0
12,715.0112779846514
13,2256.693067527073
14,1.6101497470835829
15,23.781032805772555
16,8.656045006084355
17,1.1898543017288149
18,0.6787584118998757
2,1, 1, 1, 0,11,15.00,30.00,Tuesday
7,-5.85
8,2384.8617842402206
9,1.0
10,752.5077794605232
11,1.0
12,752.5077794605232
13,2384.8617842402206
14,1.8663836063513378
15,25.7158369988381
16,9.427064176155739
17,1.9386219104691805
18,0.8967088340612529
2,1, 1, 1, 0,11,30.00,45.00,Tuesday
7,-5.425
8,2350.664610034857
9,1.0
10,742.5988714321785
11,1.0
12,742.5988714321785
13,2350.664610034857
14,2.0061423764705288
15,25.567665273372194
16,9.52460669970526
17,2.185455739730344
18,1.1011870914411997
2,1, 1, 1, 0,11,45.00,60.00,Tuesday
7,-5.0
8,2299.7215542778105
9,1.0
10,727.8169025450712
11,1.0
12,727.8169025450712
13,2299.7215542778105
14,2.1427914440197566
15,25.33794983488053
16,9.536974621054242
17,2.3905082630350309
18,1.2818396557603483
2,1, 1, 1, 0,12, 0.00,15.00,Tuesday
7,-4.575
8,2210.61548540657
9,1.0
10,700.3759009170325
11,1.0
12,700.3759009170325
13,2210.61548540657
14,2.233127479465264
15,24.594956745442567
16,9.381002302270815
17,2.5060474099550449
18,1.4340105666579688
2,1, 1, 1, 0,12,15.00,30.00,Tuesday
7,-4.15
8,2143.1160997999725
9,1.0
10,681.6705029034473
11,1.0
12,681.6705029034473
13,2143.1160997999725
14,2.341421997071007
15,24.264063480534067
16,9.335006219970069
17,2.7090312129580527
18,1.5645679046365755
2,1, 1, 1, 0,12,30.00,45.00,Tuesday
7,-3.7249999999999998
8,1879.4711091231216
9,1.0
10,602.01865277251
11,1.0
12,602.01865277251
13,1879.4711091231216
14,2.254609125843263
15,21.2356633031635
16,8.422023826452119
17,2.294388957471938
18,1.6565352332738735
2,1, 1, 1, 0,12,45.00,60.00,Tuesday
7,-3.3
8,1533.7051677701307
9,1.0
10,493.55004396206007
11,1.0
12,493.55004396206007
13,1533.7051677701307
14,2.0803961350795538
15,17.05677202429382
16,7.026689530488284
17,1.5555518994796103
18,1.6929867743320888
2,1, 1, 1, 0,13, 0.00,15.00,Tuesday
7,-3.0249999999999996
8,1262.7178701484746
9,1.0
10,412.335026418112
11,1.0
12,412.335026418112
13,1262.7178701484746
14,1.9588983359297876
15,14.2115329084659
16,5.960819662574465
17,1.0451875785864787
18,1.6861848610600557
2,1, 1, 1, 0,13,15.00,30.00,Tuesday
7,-2.75
8,921.7403004904563
9,1.0
10,305.94037763660148
11,1.0
12,305.94037763660148
13,921.7403004904563
14,1.7154143384950825
15,10.0378989780623
16,4.46757966630048
17,0.22740284800397604
18,1.6425012590047475
2,1, 1, 1, 0,13,30.00,45.00,Tuesday
7,-2.475
8,839.9213774858611
9,1.0
10,281.0763483922329
11,1.0
12,281.0763483922329
13,839.9213774858611
14,1.7065059311025146
15,9.524053350011777
16,4.18218422117468
17,0.272433112506576
18,1.5895259571284879
2,1, 1, 1, 0,13,45.00,60.00,Tuesday
7,-2.2
8,759.813419127724
9,1.0
10,256.7721209415886
11,1.0
12,256.7721209415886
13,759.813419127724
14,1.6785528328755744
15,8.916268637588992
16,3.938425469899869
17,0.3341584914588793
18,1.5460584129453044
2,1, 1, 1, 0,14, 0.00,15.00,Tuesday
7,-1.9250000000000003
8,619.6802810752625
9,1.0
10,210.73276284570657
11,1.0
12,210.73276284570657
13,619.6802810752625
14,1.5835328977182209
15,7.367403185569704
16,3.3264212543361397
17,0.1194087314013359
18,1.508275688230857
2,1, 1, 1, 0,14,15.00,30.00,Tuesday
7,-1.6500000000000002
8,548.8378620643327
9,1.0
10,189.38488290342594
11,1.0
12,189.38488290342594
13,548.8378620643327
14,1.5661596342105063
15,6.959817213178147
16,3.088059765853359
17,0.16416237080341035
18,1.476407410497751
2,1, 1, 1, 0,14,30.00,45.00,Tuesday
7,-1.375
8,523.7049020298316
9,1.0
10,179.3940297802914
11,1.0
12,179.3940297802914
13,523.7049020298316
14,1.571837990365905
15,7.07867031783855
16,3.0528184866715266
17,0.34708027088322526
18,1.4522986680524897
2,1, 1, 1, 0,14,45.00,60.00,Tuesday
7,-1.1
8,498.0530377746454
9,1.0
10,169.43349014176136
11,1.0
12,169.43349014176136
13,498.0530377746454
14,1.5750682683469104
15,7.175155228974803
16,3.014605451689249
17,0.5261918970779789
18,1.436041774604228
2,1, 1, 1, 0,15, 0.00,15.00,Tuesday
7,-1.1
8,523.6699898898578
9,1.0
10,178.15692317953907
11,1.0
12,178.15692317953907
13,523.6699898898578
14,1.6225517723786143
15,7.988432267523524
16,3.1783535853362538
17,0.6828613408333695
18,1.4296708763103705
2,1, 1, 1, 0,15,15.00,30.00,Tuesday
7,-1.1
8,491.58097492069296
9,1.0
10,166.40516310952945
11,1.0
12,166.40516310952945
13,491.58097492069296
14,1.5907185355381189
15,7.624906435863305
16,3.0074016782179457
17,0.5842741689086779
18,1.426842718387839
2,1, 1, 1, 0,15,30.00,45.00,Tuesday
7,-1.1
8,413.6647206704364
9,1.0
10,140.8967369711617
11,1.0
12,140.8967369711617
13,413.6647206704364
14,1.5049286754068033
15,6.416683646121015
16,2.571606436068407
17,0.27301441027850617
18,1.4179366636140598
2,1, 1, 1, 0,15,45.00,60.00,Tuesday
7,-1.1
8,339.73043609641595
9,1.0
10,116.57355796743004
11,1.0
12,116.57355796743004
13,339.73043609641595
14,1.4203736376746386
15,5.204345166770967
16,2.130641171165564
17,-0.04611538115716485
18,1.3954793146743192
2,1, 1, 1, 0,16, 0.00,15.00,Tuesday
7,-1.1
8,269.1113538004406
9,1.0
10,93.14939272689483
11,1.0
12,93.14939272689483
13,269.1113538004406
14,1.3347350699195882
15,4.142904181920208
16,1.721152181985417
17,-0.3021105298638531
18,1.359785037544209
2,1, 1, 1, 0,16,15.00,30.00,Tuesday
7,-1.1
8,166.70785713612708
9,1.0
10,57.94047897402063
11,1.0
12,57.94047897402063
13,166.70785713612708
14,1.1704554144575317
15,2.007426980935425
16,1.0355010205583995
17,-0.785595529844386
18,1.3087366242565269
2,1, 1, 1, 0,16,30.00,45.00,Tuesday
7,-1.1
8,129.0197724326636
9,1.0
10,45.38251793443488
11,1.0
12,45.38251793443488
13,129.0197724326636
14,1.1208214015013563
15,1.391471274308576
16,0.7820774149851673
17,-0.933479207697701
18,1.248909352834066
2,1, 1, 1, 0,16,45.00,60.00,Tuesday
7,-1.1
8,89.93350146663998
9,1.0
10,32.02625108222755
11,1.0
12,32.02625108222755
13,89.93350146663998
14,1.035724761744215
15,0.5156331383766961
16,0.5215258105818066
17,-1.1031227793351946
18,1.1859659990800545
2,1, 1, 1, 0,17, 0.00,15.00,Tuesday
7,-1.1
8,49.2880518103743
9,1.0
10,17.762198626050539
11,1.0
12,17.762198626050539
13,49.2880518103743
14,0.92145716806421
15,-0.751990719905186
16,0.18825011855381036
17,-1.405615774142234
18,1.1173166360174869
2,1, 1, 1, 0,17,15.00,30.00,Tuesday
7,-1.1
8,0.0
9,0.0
10,0.0
11,0.0
12,0.0
13,0.0
14,0.7591284590664981
15,-2.5961052646410236
16,-0.21537692592033864
17,-1.76642321041669
18,1.0327231817992313
2,1, 1, 1, 0,17,30.00,45.00,Tuesday
7,-1.1
8,0.0
9,0.0
10,0.0
11,0.0
12,0.0
13,0.0
14,0.7187802371661206
15,-2.738536251837611
16,-0.29598624137281606
17,-1.8295595169456079
18,0.9430947340240833
2,1, 1, 1, 0,17,45.00,60.00,Tuesday
7,-1.1
8,0.0
9,0.0
10,0.0
11,0.0
12,0.0
13,0.0
14,0.661892387235976
15,-2.9425549113725659
16,-0.35310832965200236
17,-1.8923502879213175
18,0.8647218600158333
2,1, 1, 1, 0,18, 0.00,15.00,Tuesday
7,-1.25
8,0.0
9,0.0
10,0.0
11,0.0
12,0.0
13,0.0
14,0.6154503357843911
15,-3.0887839229961395
16,-0.44058164245927858
17,-2.0219205235686674
18,0.8023079323025534
2,1, 1, 1, 0,18,15.00,30.00,Tuesday
7,-1.4
8,0.0
9,0.0
10,0.0
11,0.0
12,0.0
13,0.0
14,0.5734957976142702
15,-3.2411696291637446
16,-0.5163213030436964
17,-2.1418801732561407
18,0.7531013224810251
2,1, 1, 1, 0,18,30.00,45.00,Tuesday
7,-1.5499999999999999
8,0.0
9,0.0
10,0.0
11,0.0
12,0.0
13,0.0
14,0.5370008763055517
15,-3.3928440014323688
16,-0.5884495504441816
17,-2.260632469473819
18,0.7125969051734116
2,1, 1, 1, 0,18,45.00,60.00,Tuesday
7,-1.7
8,0.0
9,0.0
10,0.0
11,0.0
12,0.0
13,0.0
14,0.502019098215503
15,-3.544764469652465
16,-0.657229226020263
17,-2.377853934840516
18,0.6771438941367998
2,1, 1, 1, 0,19, 0.00,15.00,Tuesday
7,-1.825
8,0.0
9,0.0
10,0.0
11,0.0
12,0.0
13,0.0
14,0.4960235201104531
15,-3.377566093239655
16,-0.6858357560354307
17,-2.4076854599521768
18,0.6482871556940535
2,1, 1, 1, 0,19,15.00,30.00,Tuesday
7,-1.9500000000000002
8,0.0
9,0.0
10,0.0
11,0.0
12,0.0
13,0.0
14,0.4909264314767252
15,-3.2940843341408305
16,-0.7160326175434193
17,-2.4541775001389398
18,0.6274975146255395
2,1, 1, 1, 0,19,30.00,45.00,Tuesday
7,-2.075
8,0.0
9,0.0
10,0.0
11,0.0
12,0.0
13,0.0
14,0.478660613425361
15,-3.3634146115119005
16,-0.7581919822470127
17,-2.5344708105047859
18,0.6128676659410424
2,1, 1, 1, 0,19,45.00,60.00,Tuesday
7,-2.2
8,0.0
9,0.0
10,0.0
11,0.0
12,0.0
13,0.0
14,0.4705968317066674
15,-3.326324651921965
16,-0.7891613790267229
17,-2.5960728279209777
18,0.6013738470529094
2,1, 1, 1, 0,20, 0.00,15.00,Tuesday
7,-1.9250000000000003
8,0.0
9,0.0
10,0.0
11,0.0
12,0.0
13,0.0
14,0.4786417140235559
15,-3.021386574188242
16,-0.6910199540789108
17,-2.3978038456458536
18,0.5932755866611932
2,1, 1, 1, 0,20,15.00,30.00,Tuesday
7,-1.6500000000000002
8,0.0
9,0.0
10,0.0
11,0.0
12,0.0
13,0.0
14,0.4879986768094658
15,-2.719794960954277
16,-0.6046592839640539
17,-2.1720051724778388
18,0.5888042384142482
2,1, 1, 1, 0,20,30.00,45.00,Tuesday
7,-1.375
8,0.0
9,0.0
10,0.0
11,0.0
12,0.0
13,0.0
14,0.49972114669179737
15,-2.419679419397971
16,-0.5112796592761129
17,-1.951620906876542
18,0.5875919052448627
2,1, 1, 1, 0,20,45.00,60.00,Tuesday
7,-1.1
8,0.0
9,0.0
10,0.0
11,0.0
12,0.0
13,0.0
14,0.5128872919100905
15,-2.120991671113903
16,-0.41498293028030278
17,-1.7292020142300544
18,0.5889447567761332
2,1, 1, 1, 0,21, 0.00,15.00,Tuesday
7,-1.25
8,0.0
9,0.0
10,0.0
11,0.0
12,0.0
13,0.0
14,0.4785713689010069
15,-2.4176518030963778
16,-0.4917708050642773
17,-1.8729814339774862
18,0.5862795640746154
2,1, 1, 1, 0,21,15.00,30.00,Tuesday
7,-1.4
8,0.0
9,0.0
10,0.0
11,0.0
12,0.0
13,0.0
14,0.4436200486700707
15,-2.6422858134040765
16,-0.5586814221024952
17,-2.0035126909976954
18,0.5744813395437621
2,1, 1, 1, 0,21,30.00,45.00,Tuesday
7,-1.5499999999999999
8,0.0
9,0.0
10,0.0
11,0.0
12,0.0
13,0.0
14,0.39443621236625789
15,-3.0066323008200195
16,-0.6430806160074098
17,-2.164632523668388
18,0.5516724900046862
2,1, 1, 1, 0,21,45.00,60.00,Tuesday
7,-1.7
8,0.0
9,0.0
10,0.0
11,0.0
12,0.0
13,0.0
14,0.34023208652980699
15,-3.481200378436088
16,-0.7397963119041151
17,-2.3528519060496935
18,0.5193025294643415
2,1, 1, 1, 0,22, 0.00,15.00,Tuesday
7,-1.5499999999999999
8,0.0
9,0.0
10,0.0
11,0.0
12,0.0
13,0.0
14,0.3639629847793082
15,-2.9665945271113798
16,-0.6769076703609471
17,-2.1878568241874065
18,0.49158075096659328
2,1, 1, 1, 0,22,15.00,30.00,Tuesday
7,-1.4
8,0.0
9,0.0
10,0.0
11,0.0
12,0.0
13,0.0
14,0.3794155187285255
15,-2.6181226985846766
16,-0.607268557698319
17,-2.0272827672994255
18,0.47666889405201276
2,1, 1, 1, 0,22,30.00,45.00,Tuesday
7,-1.25
8,0.0
9,0.0
10,0.0
11,0.0
12,0.0
13,0.0
14,0.3907842498053947
15,-2.38980334042788
16,-0.549818736280713
17,-1.8938899044042046
18,0.47290362126264859
2,1, 1, 1, 0,22,45.00,60.00,Tuesday
7,-1.1
8,0.0
9,0.0
10,0.0
11,0.0
12,0.0
13,0.0
14,0.40693126094719297
15,-2.0923583053297465
16,-0.4755915462184248
17,-1.7335551743953488
18,0.47559478084988779
2,1, 1, 1, 0,23, 0.00,15.00,Tuesday
7,-1.25
8,0.0
9,0.0
10,0.0
11,0.0
12,0.0
13,0.0
14,0.3727471440237891
15,-2.3964742180405658
16,-0.5983050158626497
17,-1.9797877925086596
18,0.47476768322242759
2,1, 1, 1, 0,23,15.00,30.00,Tuesday
7,-1.4
8,0.0
9,0.0
10,0.0
11,0.0
12,0.0
13,0.0
14,0.3388851842454321
15,-2.701044360517641
16,-0.7252275497260143
17,-2.246422066208197
18,0.46436832863302998
2,1, 1, 1, 0,23,30.00,45.00,Tuesday
7,-1.5499999999999999
8,0.0
9,0.0
10,0.0
11,0.0
12,0.0
13,0.0
14,0.3018983164053667
15,-3.006115008482464
16,-0.8528095519939143
17,-2.5137935392588135
18,0.4442949365644925
2,1, 1, 1, 0,23,45.00,60.00,Tuesday
7,-1.7
8,0.0
9,0.0
10,0.0
11,0.0
12,0.0
13,0.0
14,0.26131299681712646
15,-3.311563239191936
16,-0.9829077615460165
17,-2.781997844964053
18,0.4169185466915051
2,1, 1, 1, 0,24, 0.00,15.00,Tuesday
7,-1.7
8,0.0
9,0.0
10,0.0
11,0.0
12,0.0
13,0.0
14,0.23976350864246166
15,-3.365115397047499
16,-1.021759520313367
17,-2.8394358511957309
18,0.387955255865015
2,1, 1, 1, 0,24,15.00,30.00,Tuesday
7,-1.7
8,0.0
9,0.0
10,0.0
11,0.0
12,0.0
13,0.0
14,0.21507906685032694
15,-3.419564784231362
16,-1.0583736452047106
17,-2.8946180126445144
18,0.3608263055802225
2,1, 1, 1, 0,24,30.00,45.00,Tuesday
7,-1.7
8,0.0
9,0.0
10,0.0
11,0.0
12,0.0
13,0.0
14,0.1909894383267705
15,-3.4738715023659005
16,-1.095628733146441
17,-2.949938880239074
18,0.3359643769035921
2,1, 1, 1, 0,24,45.00,60.00,Tuesday
7,-1.7
8,0.0
9,0.0
10,0.0
11,0.0
12,0.0
13,0.0
14,0.16748855413995793
15,-3.528174470974831
16,-1.1323327133391672
17,-3.004973844599135
18,0.3126159600240642
End of Data
 Number of Records Written=        1152
