Program Version,EnergyPlus, Version 9.5.0-de239b2e5f, YMD=2023.02.16 21:08
1,5,Environment Title[],Latitude[deg],Longitude[deg],Time Zone[],Elevation[m]
2,8,Day of Simulation[],Month[],Day of Month[],DST Indicator[1=yes 0=no],Hour[],StartMinute[],EndMinute[],DayType
3,5,Cumulative Day of Simulation[],Month[],Day of Month[],DST Indicator[1=yes 0=no],DayType  ! When Daily Report Variables Requested
4,2,Cumulative Days of Simulation[],Month[]  ! When Monthly Report Variables Requested
5,1,Cumulative Days of Simulation[] ! When Run Period Report Variables Requested
6,1,Calendar Year of Simulation[] ! When Annual Report Variables Requested
7,1,Environment,Site Outdoor Air Drybulb Temperature [C] !TimeStep
8,1,ZONE ONE,Zone Windows Total Transmitted Solar Radiation Rate [W] !TimeStep
9,1,ZN001:WALL001,Surface Outside Face Sunlit Fraction [] !TimeStep
10,1,ZN001:WALL001,Surface Outside Face Incident Solar Radiation Rate per Area [W/m2] !TimeStep
11,1,ZN001:WALL001:WIN001,Surface Outside Face Sunlit Fraction [] !TimeStep
12,1,ZN001:WALL001:WIN001,Surface Outside Face Incident Solar Radiation Rate per Area [W/m2] !TimeStep
13,1,ZN001:WALL001:WIN001,Surface Window Transmitted Solar Radiation Rate [W] !TimeStep
14,1,ZN001:WALL001,Surface Inside Face Temperature [C] !TimeStep
15,1,ZN001:WALL001,Surface Outside Face Temperature [C] !TimeStep
16,1,ZN001:WALL001:WIN001,Surface Inside Face Temperature [C] !TimeStep
17,1,ZN001:WALL001:WIN001,Surface Outside Face Temperature [C] !TimeStep
18,1,ZONE ONE,Zone Mean Air Temperature [C] !TimeStep
End of Data Dictionary
1,RUN PERIOD 1,  41.98, -87.92,  -6.00, 201.00
2,1, 1, 1, 0, 1, 0.00,15.00,Tuesday
7,-4.324999999999999
8,0.0
9,0.0
10,0.0
11,0.0
12,0.0
13,0.0
14,0.6266698455107216
15,-5.9926861231028429
16,-0.6594121459278881
17,-5.345523310118779
18,0.9502095814946079
2,1, 1, 1, 0, 1,15.00,30.00,Tuesday
7,-6.949999999999999
8,0.0
9,0.0
10,0.0
11,0.0
12,0.0
13,0.0
14,0.45479738626566948
15,-8.46064206818678
16,-1.2529528794104863
17,-7.454742440406164
18,0.8705254515873285
2,1, 1, 1, 0, 1,30.00,45.00,Tuesday
7,-9.575
8,0.0
9,0.0
10,0.0
11,0.0
12,0.0
13,0.0
14,0.2623316396772566
15,-10.937186672175065
16,-1.8467525655204327
17,-9.570686491716572
18,0.7578605938561941
2,1, 1, 1, 0, 1,45.00,60.00,Tuesday
7,-12.2
8,0.0
9,0.0
10,0.0
11,0.0
12,0.0
13,0.0
14,0.05360003020168549
15,-13.420211968840889
16,-2.45391388522512
17,-11.695047766404855
18,0.621038676431634
2,1, 1, 1, 0, 2, 0.00,15.00,Tuesday
7,-12.075
8,0.0
9,0.0
10,0.0
11,0.0
12,0.0
13,0.0
14,0.003434616354013056
15,-13.221942711510403
16,-2.5175286436031
17,-11.54991713773859
18,0.49676068791515518
2,1, 1, 1, 0, 2,15.00,30.00,Tuesday
7,-11.95
8,0.0
9,0.0
10,0.0
11,0.0
12,0.0
13,0.0
14,-0.06300767409158031
15,-13.044595207089511
16,-2.537927449858671
17,-11.39825490171745
18,0.40327653440229968
2,1, 1, 1, 0, 2,30.00,45.00,Tuesday
7,-11.825
8,0.0
9,0.0
10,0.0
11,0.0
12,0.0
13,0.0
14,-0.11274267437480019
15,-12.866002497662392
16,-2.5541436073296497
17,-11.246314426141339
18,0.3367680077207158
2,1, 1, 1, 0, 2,45.00,60.00,Tuesday
7,-11.7
8,0.0
9,0.0
10,0.0
11,0.0
12,0.0
13,0.0
14,-0.15118731079126933
15,-12.68746816124176
16,-2.5578189072486454
17,-11.091899560557295
18,0.2870108512283666
2,1, 1, 1, 0, 3, 0.00,15.00,Tuesday
7,-11.549999999999999
8,0.0
9,0.0
10,0.0
11,0.0
12,0.0
13,0.0
14,-0.1880046738614244
15,-12.563536812236962
16,-2.555549957481958
17,-10.965023946463873
18,0.24506547168269469
2,1, 1, 1, 0, 3,15.00,30.00,Tuesday
7,-11.399999999999999
8,0.0
9,0.0
10,0.0
11,0.0
12,0.0
13,0.0
14,-0.22126207567971613
15,-12.441061356936626
16,-2.5538349732969438
17,-10.830586038386514
18,0.2061228251123531
2,1, 1, 1, 0, 3,30.00,45.00,Tuesday
7,-11.25
8,0.0
9,0.0
10,0.0
11,0.0
12,0.0
13,0.0
14,-0.2534165419000878
15,-12.320222124233997
16,-2.5505119322714906
17,-10.695582361413813
18,0.16852032238595184
2,1, 1, 1, 0, 3,45.00,60.00,Tuesday
7,-11.1
8,0.0
9,0.0
10,0.0
11,0.0
12,0.0
13,0.0
14,-0.284996244481031
15,-12.201081705089923
16,-2.5465232851725547
17,-10.560955259964715
18,0.13187863609543414
2,1, 1, 1, 0, 4, 0.00,15.00,Tuesday
7,-11.1
8,0.0
9,0.0
10,0.0
11,0.0
12,0.0
13,0.0
14,-0.3200272088339544
15,-12.16954856424691
16,-2.583793210131603
17,-10.569113973215395
18,0.09541598022030767
2,1, 1, 1, 0, 4,15.00,30.00,Tuesday
7,-11.1
8,0.0
9,0.0
10,0.0
11,0.0
12,0.0
13,0.0
14,-0.3546460196929255
15,-12.139236083758782
16,-2.616538399612466
17,-10.58431720110434
18,0.05879677888668281
2,1, 1, 1, 0, 4,30.00,45.00,Tuesday
7,-11.1
8,0.0
9,0.0
10,0.0
11,0.0
12,0.0
13,0.0
14,-0.3893579364027406
15,-12.110601494374672
16,-2.648662567611609
17,-10.59964095400079
18,0.022045722525093116
2,1, 1, 1, 0, 4,45.00,60.00,Tuesday
7,-11.1
8,0.0
9,0.0
10,0.0
11,0.0
12,0.0
13,0.0
14,-0.4241101527742118
15,-12.08351019135628
16,-2.6806318883129167
17,-10.614488272619383
18,-0.014723487552432448
2,1, 1, 1, 0, 5, 0.00,15.00,Tuesday
7,-10.975
8,0.0
9,0.0
10,0.0
11,0.0
12,0.0
13,0.0
14,-0.45218259570517896
15,-11.961168201085619
16,-2.6811006985673204
17,-10.523583606251919
18,-0.05038663838564355
2,1, 1, 1, 0, 5,15.00,30.00,Tuesday
7,-10.85
8,0.0
9,0.0
10,0.0
11,0.0
12,0.0
13,0.0
14,-0.48106605173860497
15,-11.838966071263512
16,-2.682665787677365
17,-10.424908361295138
18,-0.08453941539465279
2,1, 1, 1, 0, 5,30.00,45.00,Tuesday
7,-10.725
8,0.0
9,0.0
10,0.0
11,0.0
12,0.0
13,0.0
14,-0.5089566982593322
15,-11.716705727600873
16,-2.6842137814759328
17,-10.325507854787816
18,-0.11743750344421943
2,1, 1, 1, 0, 5,45.00,60.00,Tuesday
7,-10.6
8,0.0
9,0.0
10,0.0
11,0.0
12,0.0
13,0.0
14,-0.5360856790618653
15,-11.594459428032215
16,-2.6850256727821035
17,-10.22589720645766
18,-0.149435244924809
2,1, 1, 1, 0, 6, 0.00,15.00,Tuesday
7,-10.6
8,0.0
9,0.0
10,0.0
11,0.0
12,0.0
13,0.0
14,-0.5716124652410468
15,-11.595189878701124
16,-2.7121092215769524
17,-10.226459736869629
18,-0.182081918584757
2,1, 1, 1, 0, 6,15.00,30.00,Tuesday
7,-10.6
8,0.0
9,0.0
10,0.0
11,0.0
12,0.0
13,0.0
14,-0.605585525633603
15,-11.595788193340603
16,-2.7410632876302545
17,-10.230870539169019
18,-0.21609855449098554
2,1, 1, 1, 0, 6,30.00,45.00,Tuesday
7,-10.6
8,0.0
9,0.0
10,0.0
11,0.0
12,0.0
13,0.0
14,-0.640204501315663
15,-11.59646880875599
16,-2.7696897508905069
17,-10.236097399698054
18,-0.2512270750014909
2,1, 1, 1, 0, 6,45.00,60.00,Tuesday
7,-10.6
8,0.0
9,0.0
10,0.0
11,0.0
12,0.0
13,0.0
14,-0.675174570882349
15,-11.597145307846242
16,-2.7986357281496909
17,-10.24170476482493
18,-0.2869704974069565
2,1, 1, 1, 0, 7, 0.00,15.00,Tuesday
7,-10.6
8,0.0
9,0.0
10,0.0
11,0.0
12,0.0
13,0.0
14,-0.7079154246265302
15,-11.57116500118674
16,-2.8314022668001259
17,-10.251542095590822
18,-0.3226653232583517
2,1, 1, 1, 0, 7,15.00,30.00,Tuesday
7,-10.6
8,0.0
9,0.0
10,0.0
11,0.0
12,0.0
13,0.0
14,-0.7408274226234929
15,-11.546533498055135
16,-2.859736929086921
17,-10.262566893270673
18,-0.3578164519583737
2,1, 1, 1, 0, 7,30.00,45.00,Tuesday
7,-10.6
8,0.0
9,0.0
10,0.0
11,0.0
12,0.0
13,0.0
14,-0.7735070747920666
15,-11.523145334529542
16,-2.890518913642495
17,-10.273747340203272
18,-0.39250780662072579
2,1, 1, 1, 0, 7,45.00,60.00,Tuesday
7,-10.6
8,0.0
9,0.0
10,0.0
11,0.0
12,0.0
13,0.0
14,-0.805883776509882
15,-11.500931613244376
16,-2.9180978008958506
17,-10.284057858983829
18,-0.4267841925144105
2,1, 1, 1, 0, 8, 0.00,15.00,Tuesday
7,-10.45
8,0.0
9,0.0
10,0.0
11,0.0
12,0.0
13,0.0
14,-0.8393354973604085
15,-11.453537816604907
16,-2.9330081900979509
17,-10.243865668503532
18,-0.4612196427492869
2,1, 1, 1, 0, 8,15.00,30.00,Tuesday
7,-10.3
8,57.69019600974546
9,1.0
10,22.819555959623899
11,1.0
12,22.819555959623899
13,57.69019600974546
14,-0.7707305196039482
15,-9.780920951265755
16,-2.5204496077244018
17,-9.853187476778829
18,-0.4818435919676049
2,1, 1, 1, 0, 8,30.00,45.00,Tuesday
7,-10.15
8,285.3800070249231
9,1.0
10,109.75755355442667
11,1.0
12,109.75755355442667
13,285.3800070249231
14,-0.42516507844503317
15,-3.424813845636227
16,-0.8125505041484189
17,-8.452091945755456
18,-0.45123654489424727
2,1, 1, 1, 0, 8,45.00,60.00,Tuesday
7,-10.0
8,524.6055123031704
9,1.0
10,195.8764694434918
11,1.0
12,195.8764694434918
13,524.6055123031704
14,0.010387369281190799
15,3.0735094125574449
16,0.9848366207528443
17,-7.078914044314729
18,-0.3639032879424966
2,1, 1, 1, 0, 9, 0.00,15.00,Tuesday
7,-9.725
8,768.4491717444191
9,1.0
10,278.97248314719988
11,1.0
12,278.97248314719988
13,768.4491717444191
14,0.3288201525301988
15,8.250742830827268
16,2.5568689396849324
17,-5.890488576485382
18,-0.22996580158588499
2,1, 1, 1, 0, 9,15.00,30.00,Tuesday
7,-9.45
8,1030.6249243631592
9,1.0
10,364.91995730569456
11,1.0
12,364.91995730569456
13,1030.6249243631592
14,0.6847789087593869
15,13.333239548155312
16,4.115688805847185
17,-4.717999169620384
18,-0.05714017066866338
2,1, 1, 1, 0, 9,30.00,45.00,Tuesday
7,-9.175
8,1210.4804273274606
9,1.0
10,420.35879993239237
11,1.0
12,420.35879993239237
13,1210.4804273274606
14,0.9238214246695455
15,16.093181340671547
16,5.136844800862832
17,-4.006611635902345
18,0.13570152920416149
2,1, 1, 1, 0, 9,45.00,60.00,Tuesday
7,-8.9
8,1398.6777532574607
9,1.0
10,478.00138373643099
11,1.0
12,478.00138373643099
13,1398.6777532574607
14,1.2074275177789238
15,19.08903470806603
16,6.1654852324425069
17,-3.2652273226293575
18,0.3405264191505555
2,1, 1, 1, 0,10, 0.00,15.00,Tuesday
7,-8.350000000000002
8,1592.0755180216234
9,1.0
10,536.9185644770597
11,1.0
12,536.9185644770597
13,1592.0755180216234
14,1.429916252092449
15,20.210607734181118
16,7.22273593902753
17,-2.4952082094221739
18,0.5614401263459838
2,1, 1, 1, 0,10,15.00,30.00,Tuesday
7,-7.800000000000001
8,1792.701648704855
9,1.0
10,598.0969199229219
11,1.0
12,598.0969199229219
13,1792.701648704855
14,1.676635647717755
15,21.46665374092959
16,8.30301493044334
17,-1.729031668231869
18,0.7957079385766147
2,1, 1, 1, 0,10,30.00,45.00,Tuesday
7,-7.25
8,1928.119448426844
9,1.0
10,637.6133352894237
11,1.0
12,637.6133352894237
13,1928.119448426844
14,1.8568987282884475
15,21.529103110202013
16,9.056188333147646
17,-1.2070340633964634
18,1.0291792843802353
2,1, 1, 1, 0,10,45.00,60.00,Tuesday
7,-6.7
8,2061.422449283195
9,1.0
10,676.6412284283772
11,1.0
12,676.6412284283772
13,2061.422449283195
14,2.0518234511692698
15,21.69146905487382
16,9.78504128525509
17,-0.6898505324447228
18,1.2536296547236026
2,1, 1, 1, 0,11, 0.00,15.00,Tuesday
7,-6.275
8,2192.1032501103888
9,1.0
10,715.0112779846514
11,1.0
12,715.0112779846514
13,2192.1032501103888
14,2.323695491967118
15,23.788659301865097
16,10.547666252825366
17,0.07107559749317716
18,1.4730116595034338
2,1, 1, 1, 0,11,15.00,30.00,Tuesday
7,-5.85
8,2319.457313777197
9,1.0
10,752.5077794605232
11,1.0
12,752.5077794605232
13,2319.457313777197
14,2.5806678296405129
15,25.72337930806104
16,11.296247835374857
17,0.8079914380321043
18,1.6923148044663717
2,1, 1, 1, 0,11,30.00,45.00,Tuesday
7,-5.425
8,2285.6965649767259
9,1.0
10,742.5988714321785
11,1.0
12,742.5988714321785
13,2285.6965649767259
14,2.7195442831005849
15,25.57508347824297
16,11.371409213654318
17,1.083032272932769
18,1.896795173409266
2,1, 1, 1, 0,11,45.00,60.00,Tuesday
7,-5.0
8,2235.2264038775226
9,1.0
10,727.8169025450712
11,1.0
12,727.8169025450712
13,2235.2264038775226
14,2.854695496092103
15,25.345359915023164
16,11.352871253756007
17,1.3202737206088387
18,2.0764021906389815
2,1, 1, 1, 0,12, 0.00,15.00,Tuesday
7,-4.575
8,2148.0872974320998
9,1.0
10,700.3759009170325
11,1.0
12,700.3759009170325
13,2148.0872974320998
14,2.9431334244083025
15,24.602332059196294
16,11.154127494789691
17,1.4804410319534896
18,2.2267112084284399
2,1, 1, 1, 0,12,15.00,30.00,Tuesday
7,-4.15
8,2080.433669087304
9,1.0
10,681.6705029034473
11,1.0
12,681.6705029034473
13,2080.433669087304
14,3.0491485067679826
15,24.271440390374875
16,11.065467587353738
17,1.7230301030208466
18,2.354630067350934
2,1, 1, 1, 0,12,30.00,45.00,Tuesday
7,-3.7249999999999998
8,1821.205491197466
9,1.0
10,602.01865277251
11,1.0
12,602.01865277251
13,1821.205491197466
14,2.958458801387392
15,21.242908602127945
16,10.103139801826956
17,1.402369679352205
18,2.4436997706955578
2,1, 1, 1, 0,12,45.00,60.00,Tuesday
7,-3.3
8,1484.3573874927543
9,1.0
10,493.55004396206007
11,1.0
12,493.55004396206007
13,1484.3573874927543
14,2.7778547193149958
15,17.063921189622
16,8.640198928853807
17,0.7891143516523016
18,2.478926902583564
2,1, 1, 1, 0,13, 0.00,15.00,Tuesday
7,-3.0249999999999996
8,1217.3467534298216
9,1.0
10,412.335026418112
11,1.0
12,412.335026418112
13,1217.3467534298216
14,2.6537031142232658
15,14.218660181588986
16,7.506484308055462
17,0.3672020106605487
18,2.469221585814713
2,1, 1, 1, 0,13,15.00,30.00,Tuesday
7,-2.75
8,884.698883173216
9,1.0
10,305.94037763660148
11,1.0
12,305.94037763660148
13,884.698883173216
14,2.4161953127683617
15,10.044509347925006
16,5.942019093149838
17,-0.324592458081554
18,2.4167560963799854
2,1, 1, 1, 0,13,30.00,45.00,Tuesday
7,-2.475
8,804.3446509208166
9,1.0
10,281.0763483922329
11,1.0
12,281.0763483922329
13,804.3446509208166
14,2.392265612807345
15,9.527347871078197
16,5.593499276941202
17,-0.24118427906387297
18,2.354459599723923
2,1, 1, 1, 0,13,45.00,60.00,Tuesday
7,-2.2
8,725.6418045118138
9,1.0
10,256.7721209415886
11,1.0
12,256.7721209415886
13,725.6418045118138
14,2.364274928537783
15,8.923915252517033
16,5.285904044588392
17,-0.13626751980899599
18,2.3040906596492909
2,1, 1, 1, 0,14, 0.00,15.00,Tuesday
7,-1.9250000000000003
8,590.7556685446293
9,1.0
10,210.73276284570657
11,1.0
12,210.73276284570657
13,590.7556685446293
14,2.2667831896021806
15,7.374599979257774
16,4.604560290273298
17,-0.29343766810438867
18,2.261048277547434
2,1, 1, 1, 0,14,15.00,30.00,Tuesday
7,-1.6500000000000002
8,521.0384688260733
9,1.0
10,189.38488290342594
11,1.0
12,189.38488290342594
13,521.0384688260733
14,2.2439108581026185
15,6.9665774280958649
16,4.3076674934731049
17,-0.21246488998724545
18,2.2249869543540754
2,1, 1, 1, 0,14,30.00,45.00,Tuesday
7,-1.375
8,498.15229057485149
9,1.0
10,179.3940297802914
11,1.0
12,179.3940297802914
13,498.15229057485149
14,2.2487872917963789
15,7.087800093357129
16,4.212284497894984
17,-0.009256587439267605
18,2.197371316588104
2,1, 1, 1, 0,14,45.00,60.00,Tuesday
7,-1.1
8,474.5397565900047
9,1.0
10,169.43349014176136
11,1.0
12,169.43349014176136
13,474.5397565900047
14,2.2512044081598088
15,7.184416627831764
16,4.115539662486867
17,0.19195731677893947
18,2.17759941249361
2,1, 1, 1, 0,15, 0.00,15.00,Tuesday
7,-1.1
8,498.70949945430098
9,1.0
10,178.15692317953907
11,1.0
12,178.15692317953907
13,498.70949945430098
14,2.2971812476896349
15,7.998379687403738
16,4.271157536992291
17,0.33238549653111706
18,2.1678882204691458
2,1, 1, 1, 0,15,15.00,30.00,Tuesday
7,-1.1
8,468.37919296528846
9,1.0
10,166.40516310952945
11,1.0
12,166.40516310952945
13,468.37919296528846
14,2.2643226148338
15,7.634538864704126
16,4.08384055454917
17,0.23896985931025939
18,2.1622617208719014
2,1, 1, 1, 0,15,30.00,45.00,Tuesday
7,-1.1
8,393.0687015115151
9,1.0
10,140.8967369711617
11,1.0
12,140.8967369711617
13,393.0687015115151
14,2.1821640279710867
15,6.426217652517373
16,3.636293514740146
17,-0.044441880680494708
18,2.1481672126436
2,1, 1, 1, 0,15,45.00,60.00,Tuesday
7,-1.1
8,321.7616953401986
9,1.0
10,116.57355796743004
11,1.0
12,116.57355796743004
13,321.7616953401986
14,2.0923685880676579
15,5.2134477994010759
16,3.1880804107188398
17,-0.34193085727611108
18,2.1196038217043378
2,1, 1, 1, 0,16, 0.00,15.00,Tuesday
7,-1.1
8,253.93333576075279
9,1.0
10,93.14939272689483
11,1.0
12,93.14939272689483
13,253.93333576075279
14,2.005203643586538
15,4.1544649676980349
16,2.7574681804392187
17,-0.5789238308713607
18,2.0780698854504018
2,1, 1, 1, 0,16,15.00,30.00,Tuesday
7,-1.1
8,156.7583535986634
9,1.0
10,57.94047897402063
11,1.0
12,57.94047897402063
13,156.7583535986634
14,1.8504257224724455
15,2.02365583483608
16,2.0491813267574345
17,-1.0253398612496199
18,2.020863578884838
2,1, 1, 1, 0,16,30.00,45.00,Tuesday
7,-1.1
8,120.7720561106513
9,1.0
10,45.38251793443488
11,1.0
12,45.38251793443488
13,120.7720561106513
14,1.795093792938194
15,1.4049468395232819
16,1.7594091847897176
17,-1.1693899577387584
18,1.955869148106817
2,1, 1, 1, 0,16,45.00,60.00,Tuesday
7,-1.1
8,83.83798514208277
9,1.0
10,32.02625108222755
11,1.0
12,32.02625108222755
13,83.83798514208277
14,1.708767106357428
15,0.5310635950546268
16,1.4747994167194066
17,-1.3371764321953493
18,1.8889094182857032
2,1, 1, 1, 0,17, 0.00,15.00,Tuesday
7,-1.1
8,45.806462499356218
9,1.0
10,17.762198626050539
11,1.0
12,17.762198626050539
13,45.806462499356218
14,1.5942358777367707
15,-0.7346327093424214
16,1.1349816391286823
17,-1.6365701333397738
18,1.8172111277422214
2,1, 1, 1, 0,17,15.00,30.00,Tuesday
7,-1.1
8,0.0
9,0.0
10,0.0
11,0.0
12,0.0
13,0.0
14,1.4326026953079989
15,-2.5779594537016319
16,0.7250737565313443
17,-1.9779744489710538
18,1.730203367205676
2,1, 1, 1, 0,17,30.00,45.00,Tuesday
7,-1.1
8,0.0
9,0.0
10,0.0
11,0.0
12,0.0
13,0.0
14,1.3902673175009235
15,-2.7199106279923574
16,0.6360259726064328
17,-2.048107924762064
18,1.6396974254310893
2,1, 1, 1, 0,17,45.00,60.00,Tuesday
7,-1.1
8,0.0
9,0.0
10,0.0
11,0.0
12,0.0
13,0.0
14,1.3323916615979704
15,-2.922361347227189
16,0.5778121535978471
17,-2.125116347690721
18,1.5610100936696945
2,1, 1, 1, 0,18, 0.00,15.00,Tuesday
7,-1.25
8,0.0
9,0.0
10,0.0
11,0.0
12,0.0
13,0.0
14,1.285196905455689
15,-3.0687750995225109
16,0.5008411942069415
17,-2.2667107516010107
18,1.4985043709127009
2,1, 1, 1, 0,18,15.00,30.00,Tuesday
7,-1.4
8,0.0
9,0.0
10,0.0
11,0.0
12,0.0
13,0.0
14,1.2426533597424266
15,-3.221131614115296
16,0.43540547024844047
17,-2.3982607029615226
18,1.4492991265754374
2,1, 1, 1, 0,18,30.00,45.00,Tuesday
7,-1.5499999999999999
8,0.0
9,0.0
10,0.0
11,0.0
12,0.0
13,0.0
14,1.2056700226360227
15,-3.372803189761368
16,0.3740425682829027
17,-2.5294190438941657
18,1.40882545184555
2,1, 1, 1, 0,18,45.00,60.00,Tuesday
7,-1.7
8,0.0
9,0.0
10,0.0
11,0.0
12,0.0
13,0.0
14,1.1703351077883265
15,-3.5247120082066005
16,0.318711268123991
17,-2.6538621077564246
18,1.3733814838710979
2,1, 1, 1, 0,19, 0.00,15.00,Tuesday
7,-1.825
8,0.0
9,0.0
10,0.0
11,0.0
12,0.0
13,0.0
14,1.163407552136413
15,-3.359779737398776
16,0.29278039384666956
17,-2.6681428087562155
18,1.34450382388329
2,1, 1, 1, 0,19,15.00,30.00,Tuesday
7,-1.9500000000000002
8,0.0
9,0.0
10,0.0
11,0.0
12,0.0
13,0.0
14,1.1574312140046808
15,-3.278270460139573
16,0.27230242322684719
17,-2.7000662987368289
18,1.3237002837402188
2,1, 1, 1, 0,19,30.00,45.00,Tuesday
7,-2.075
8,0.0
9,0.0
10,0.0
11,0.0
12,0.0
13,0.0
14,1.1443870396720633
15,-3.3480968147984484
16,0.24144949917570103
17,-2.784482067245108
18,1.3090631820192938
2,1, 1, 1, 0,19,45.00,60.00,Tuesday
7,-2.2
8,0.0
9,0.0
10,0.0
11,0.0
12,0.0
13,0.0
14,1.1357042797437298
15,-3.3127937851989346
16,0.22249742483069213
17,-2.8342320991965836
18,1.2975582426199526
2,1, 1, 1, 0,20, 0.00,15.00,Tuesday
7,-1.9250000000000003
8,0.0
9,0.0
10,0.0
11,0.0
12,0.0
13,0.0
14,1.1426478552976068
15,-3.0083186004336146
16,0.281284377176064
17,-2.5953448352887564
18,1.2889412096386868
2,1, 1, 1, 0,20,15.00,30.00,Tuesday
7,-1.6500000000000002
8,0.0
9,0.0
10,0.0
11,0.0
12,0.0
13,0.0
14,1.1508968227104386
15,-2.707161252936412
16,0.3407894192164349
17,-2.350565363934834
18,1.283395753408407
2,1, 1, 1, 0,20,30.00,45.00,Tuesday
7,-1.375
8,0.0
9,0.0
10,0.0
11,0.0
12,0.0
13,0.0
14,1.1601242852396312
15,-2.4074792545210554
16,0.40198987690303059
17,-2.1044600754303248
18,1.280548506283958
2,1, 1, 1, 0,20,45.00,60.00,Tuesday
7,-1.1
8,0.0
9,0.0
10,0.0
11,0.0
12,0.0
13,0.0
14,1.1711909152922085
15,-2.10916231154202
16,0.46483575531317458
17,-1.8571849638528875
18,1.2798428672548539
2,1, 1, 1, 0,21, 0.00,15.00,Tuesday
7,-1.25
8,0.0
9,0.0
10,0.0
11,0.0
12,0.0
13,0.0
14,1.137301687181143
15,-2.4037736712497219
16,0.4123716952948939
17,-2.0391173168457046
18,1.2752969902641556
2,1, 1, 1, 0,21,15.00,30.00,Tuesday
7,-1.4
8,0.0
9,0.0
10,0.0
11,0.0
12,0.0
13,0.0
14,1.1011512823384973
15,-2.6274524576975368
16,0.35576162487802778
17,-2.18341554105848
18,1.2618971947697409
2,1, 1, 1, 0,21,30.00,45.00,Tuesday
7,-1.5499999999999999
8,0.0
9,0.0
10,0.0
11,0.0
12,0.0
13,0.0
14,1.0520470267127369
15,-2.9892281544905847
16,0.28415484152924366
17,-2.3809419598240995
18,1.2377978449408516
2,1, 1, 1, 0,21,45.00,60.00,Tuesday
7,-1.7
8,0.0
9,0.0
10,0.0
11,0.0
12,0.0
13,0.0
14,0.9977152633034333
15,-3.461008736963309
16,0.19965659277232818
17,-2.6147530549037585
18,1.204492323760697
2,1, 1, 1, 0,22, 0.00,15.00,Tuesday
7,-1.5499999999999999
8,0.0
9,0.0
10,0.0
11,0.0
12,0.0
13,0.0
14,1.0194009470016894
15,-2.949792259079817
16,0.2337282799178979
17,-2.382669694767287
18,1.1757736270924165
2,1, 1, 1, 0,22,15.00,30.00,Tuesday
7,-1.4
8,0.0
9,0.0
10,0.0
11,0.0
12,0.0
13,0.0
14,1.0315311089462469
15,-2.603575650747073
16,0.2830895447752937
17,-2.1870082506091537
18,1.1596044764685523
2,1, 1, 1, 0,22,30.00,45.00,Tuesday
7,-1.25
8,0.0
9,0.0
10,0.0
11,0.0
12,0.0
13,0.0
14,1.0418401136978904
15,-2.3762208006669964
16,0.3258262821653375
17,-2.0404589966186679
18,1.1545081135814884
2,1, 1, 1, 0,22,45.00,60.00,Tuesday
7,-1.1
8,0.0
9,0.0
10,0.0
11,0.0
12,0.0
13,0.0
14,1.0558646980192972
15,-2.0806969716810479
16,0.3751798268657467
17,-1.8432327121385584
18,1.1557264186324694
2,1, 1, 1, 0,23, 0.00,15.00,Tuesday
7,-1.25
8,0.0
9,0.0
10,0.0
11,0.0
12,0.0
13,0.0
14,1.0225350941458993
15,-2.38459125707289
16,0.2976978055044128
17,-2.126467916726426
18,1.1537533156920188
2,1, 1, 1, 0,23,15.00,30.00,Tuesday
7,-1.4
8,0.0
9,0.0
10,0.0
11,0.0
12,0.0
13,0.0
14,0.9890058816139826
15,-2.68917544237425
16,0.20722069412408929
17,-2.418290343321644
18,1.1428074849898587
2,1, 1, 1, 0,23,30.00,45.00,Tuesday
7,-1.5499999999999999
8,0.0
9,0.0
10,0.0
11,0.0
12,0.0
13,0.0
14,0.9513666328697529
15,-2.9942327855765367
16,0.11520261437618729
17,-2.710195702868191
18,1.1226963900887719
2,1, 1, 1, 0,23,45.00,60.00,Tuesday
7,-1.7
8,0.0
9,0.0
10,0.0
11,0.0
12,0.0
13,0.0
14,0.9112645456245251
15,-3.2996165692259624
16,0.019943263631262199
17,-3.0025765024107615
18,1.095704821276182
2,1, 1, 1, 0,24, 0.00,15.00,Tuesday
7,-1.7
8,0.0
9,0.0
10,0.0
11,0.0
12,0.0
13,0.0
14,0.8893580270194663
15,-3.3532152839490019
16,-0.016290823373537934
17,-3.0606200069020135
18,1.0671469079331356
2,1, 1, 1, 0,24,15.00,30.00,Tuesday
7,-1.7
8,0.0
9,0.0
10,0.0
11,0.0
12,0.0
13,0.0
14,0.8643754104850334
15,-3.4076654778902695
16,-0.048356484998635099
17,-3.1186283540499746
18,1.0402379647607128
2,1, 1, 1, 0,24,30.00,45.00,Tuesday
7,-1.7
8,0.0
9,0.0
10,0.0
11,0.0
12,0.0
13,0.0
14,0.8399640601105137
15,-3.4619792234782316
16,-0.08110723460629288
17,-3.176904118788798
18,1.0153914162365452
2,1, 1, 1, 0,24,45.00,60.00,Tuesday
7,-1.7
8,0.0
9,0.0
10,0.0
11,0.0
12,0.0
13,0.0
14,0.8161058693347854
15,-3.5162907781823287
16,-0.11327381330005437
17,-3.234998843324888
18,0.9919113112881897
End of Data
 Number of Records Written=        1152
