Program Version,EnergyPlus, Version 9.5.0-de239b2e5f, YMD=2023.02.17 18:12
1,5,Environment Title[],Latitude[deg],Longitude[deg],Time Zone[],Elevation[m]
2,8,Day of Simulation[],Month[],Day of Month[],DST Indicator[1=yes 0=no],Hour[],StartMinute[],EndMinute[],DayType
3,5,Cumulative Day of Simulation[],Month[],Day of Month[],DST Indicator[1=yes 0=no],DayType  ! When Daily Report Variables Requested
4,2,Cumulative Days of Simulation[],Month[]  ! When Monthly Report Variables Requested
5,1,Cumulative Days of Simulation[] ! When Run Period Report Variables Requested
6,1,Calendar Year of Simulation[] ! When Annual Report Variables Requested
7,1,Environment,Site Outdoor Air Drybulb Temperature [C] !TimeStep
8,1,ZONE ONE,Zone Windows Total Transmitted Solar Radiation Rate [W] !TimeStep
9,1,ZN001:WALL001,Surface Outside Face Sunlit Fraction [] !TimeStep
10,1,ZN001:WALL001,Surface Outside Face Incident Solar Radiation Rate per Area [W/m2] !TimeStep
11,1,ZN001:WALL001:WIN001,Surface Outside Face Sunlit Fraction [] !TimeStep
12,1,ZN001:WALL001:WIN001,Surface Outside Face Incident Solar Radiation Rate per Area [W/m2] !TimeStep
13,1,ZN001:WALL001:WIN001,Surface Window Transmitted Solar Radiation Rate [W] !TimeStep
14,1,ZN001:WALL001,Surface Inside Face Temperature [C] !TimeStep
15,1,ZN001:WALL001,Surface Outside Face Temperature [C] !TimeStep
16,1,ZN001:WALL001:WIN001,Surface Inside Face Temperature [C] !TimeStep
17,1,ZN001:WALL001:WIN001,Surface Outside Face Temperature [C] !TimeStep
18,1,ZONE ONE,Zone Mean Air Temperature [C] !TimeStep
End of Data Dictionary
1,RUN PERIOD 1,  41.98, -87.92,  -6.00, 201.00
2,1, 1, 1, 0, 1, 0.00,15.00,Tuesday
7,-4.324999999999999
8,0.0
9,0.0
10,0.0
11,0.0
12,0.0
13,0.0
14,1.2588482250851457
15,-5.9811268445672269
16,-0.518266319935833
17,-4.96269697777268
18,1.5951002447340963
2,1, 1, 1, 0, 1,15.00,30.00,Tuesday
7,-6.949999999999999
8,0.0
9,0.0
10,0.0
11,0.0
12,0.0
13,0.0
14,1.0831709715538374
15,-8.449087690344305
16,-1.2190020244045173
17,-6.9889982223630799
18,1.5089222373726945
2,1, 1, 1, 0, 1,30.00,45.00,Tuesday
7,-9.575
8,0.0
9,0.0
10,0.0
11,0.0
12,0.0
13,0.0
14,0.8856948090573397
15,-10.925603261108835
16,-1.921026124655441
17,-9.021751366163358
18,1.3883282711728882
2,1, 1, 1, 0, 1,45.00,60.00,Tuesday
7,-12.2
8,0.0
9,0.0
10,0.0
11,0.0
12,0.0
13,0.0
14,0.6710560197266036
15,-13.408615153118307
16,-2.636523051653569
17,-11.063021924385567
18,1.2428384770967219
2,1, 1, 1, 0, 2, 0.00,15.00,Tuesday
7,-12.075
8,0.0
9,0.0
10,0.0
11,0.0
12,0.0
13,0.0
14,0.6154706567844351
15,-13.21032760391325
16,-2.6853398869180298
17,-10.922041781087899
18,1.1115103255230535
2,1, 1, 1, 0, 2,15.00,30.00,Tuesday
7,-11.95
8,0.0
9,0.0
10,0.0
11,0.0
12,0.0
13,0.0
14,0.5440325826872317
15,-13.0330684933423
16,-2.6954022111518158
17,-10.79204175632168
18,1.013100309045001
2,1, 1, 1, 0, 2,30.00,45.00,Tuesday
7,-11.825
8,0.0
9,0.0
10,0.0
11,0.0
12,0.0
13,0.0
14,0.49021917775882647
15,-12.854531332550174
16,-2.708661282414596
17,-10.64161808488052
18,0.9429466078761705
2,1, 1, 1, 0, 2,45.00,60.00,Tuesday
7,-11.7
8,0.0
9,0.0
10,0.0
11,0.0
12,0.0
13,0.0
14,0.448319153699665
15,-12.676060648291612
16,-2.7013905869042675
17,-10.5071636376573
18,0.8900998368494859
2,1, 1, 1, 0, 3, 0.00,15.00,Tuesday
7,-11.549999999999999
8,0.0
9,0.0
10,0.0
11,0.0
12,0.0
13,0.0
14,0.40823773593179416
15,-12.55187875612916
16,-2.692634281685855
17,-10.37090155172416
18,0.8451662058174172
2,1, 1, 1, 0, 3,15.00,30.00,Tuesday
7,-11.399999999999999
8,0.0
9,0.0
10,0.0
11,0.0
12,0.0
13,0.0
14,0.37180906778406977
15,-12.429147112436472
16,-2.6819494062959849
17,-10.23436460528876
18,0.8032254811602153
2,1, 1, 1, 0, 3,30.00,45.00,Tuesday
7,-11.25
8,0.0
9,0.0
10,0.0
11,0.0
12,0.0
13,0.0
14,0.33650108346889159
15,-12.3080396347256
16,-2.6693758504329709
17,-10.097748661841365
18,0.7626398971655295
2,1, 1, 1, 0, 3,45.00,60.00,Tuesday
7,-11.1
8,0.0
9,0.0
10,0.0
11,0.0
12,0.0
13,0.0
14,0.30180315352025285
15,-12.188616983306087
16,-2.6561081528708998
17,-9.961446501306682
18,0.7230619603812537
2,1, 1, 1, 0, 4, 0.00,15.00,Tuesday
7,-11.1
8,0.0
9,0.0
10,0.0
11,0.0
12,0.0
13,0.0
14,0.2634506608256604
15,-12.157501359941877
16,-2.6997608405594066
17,-9.980525810774396
18,0.68348997641888
2,1, 1, 1, 0, 4,15.00,30.00,Tuesday
7,-11.1
8,0.0
9,0.0
10,0.0
11,0.0
12,0.0
13,0.0
14,0.22549100923652899
15,-12.12759501526102
16,-2.737265836694519
17,-10.006619923327549
18,0.6435311578642674
2,1, 1, 1, 0, 4,30.00,45.00,Tuesday
7,-11.1
8,0.0
9,0.0
10,0.0
11,0.0
12,0.0
13,0.0
14,0.18734990972958918
15,-12.099348714518568
16,-2.773882898325269
17,-10.032764449641093
18,0.6032780630405681
2,1, 1, 1, 0, 4,45.00,60.00,Tuesday
7,-11.1
8,0.0
9,0.0
10,0.0
11,0.0
12,0.0
13,0.0
14,0.14911360195017113
15,-12.072626487440476
16,-2.8102622296407278
17,-10.058215422849685
18,0.5629269694179774
2,1, 1, 1, 0, 5, 0.00,15.00,Tuesday
7,-10.975
8,0.0
9,0.0
10,0.0
11,0.0
12,0.0
13,0.0
14,0.1166828147000491
15,-11.95035986190657
16,-2.805498258104535
17,-9.973713083008363
18,0.5236786953792345
2,1, 1, 1, 0, 5,15.00,30.00,Tuesday
7,-10.85
8,0.0
9,0.0
10,0.0
11,0.0
12,0.0
13,0.0
14,0.08445759038224705
15,-11.82819194550359
16,-2.8029892827598816
17,-9.88150371811912
18,0.4860380154063118
2,1, 1, 1, 0, 5,30.00,45.00,Tuesday
7,-10.725
8,0.0
9,0.0
10,0.0
11,0.0
12,0.0
13,0.0
14,0.05322434244036735
15,-11.706002523903593
16,-2.8003154461301849
17,-9.788358052900719
18,0.4497968124349453
2,1, 1, 1, 0, 5,45.00,60.00,Tuesday
7,-10.6
8,0.0
9,0.0
10,0.0
11,0.0
12,0.0
13,0.0
14,0.022832390949593524
15,-11.58382268628714
16,-2.796906693071719
17,-9.694932288599034
18,0.4145787681046396
2,1, 1, 1, 0, 6, 0.00,15.00,Tuesday
7,-10.6
8,0.0
9,0.0
10,0.0
11,0.0
12,0.0
13,0.0
14,-0.014984033676455787
15,-11.584609445554998
16,-2.8247612691988026
17,-9.697651095280549
18,0.378830348142148
2,1, 1, 1, 0, 6,15.00,30.00,Tuesday
7,-10.6
8,0.0
9,0.0
10,0.0
11,0.0
12,0.0
13,0.0
14,-0.0521948506793054
15,-11.585301881293786
16,-2.8544139220474564
17,-9.703938877007375
18,0.34173117247001258
2,1, 1, 1, 0, 6,30.00,45.00,Tuesday
7,-10.6
8,0.0
9,0.0
10,0.0
11,0.0
12,0.0
13,0.0
14,-0.08994636473570572
15,-11.58603877746079
16,-2.8840247084440309
17,-9.711044489582605
18,0.3034684342240942
2,1, 1, 1, 0, 6,45.00,60.00,Tuesday
7,-10.6
8,0.0
9,0.0
10,0.0
11,0.0
12,0.0
13,0.0
14,-0.12806938155687265
15,-11.586776226680481
16,-2.913918607461369
17,-9.718517427901248
18,0.2645405151408057
2,1, 1, 1, 0, 7, 0.00,15.00,Tuesday
7,-10.6
8,0.0
9,0.0
10,0.0
11,0.0
12,0.0
13,0.0
14,-0.16406461403914339
15,-11.561126849834802
16,-2.952015292886699
17,-9.73781052422521
18,0.22557574550634794
2,1, 1, 1, 0, 7,15.00,30.00,Tuesday
7,-10.6
8,0.0
9,0.0
10,0.0
11,0.0
12,0.0
13,0.0
14,-0.20025715376255635
15,-11.536811382882253
16,-2.985761290597054
17,-9.758475753305789
18,0.1870242767523604
2,1, 1, 1, 0, 7,30.00,45.00,Tuesday
7,-10.6
8,0.0
9,0.0
10,0.0
11,0.0
12,0.0
13,0.0
14,-0.23622352060685024
15,-11.513725491457216
16,-3.018991231860525
17,-9.778854453824863
18,0.14894552536377984
2,1, 1, 1, 0, 7,45.00,60.00,Tuesday
7,-10.6
8,0.0
9,0.0
10,0.0
11,0.0
12,0.0
13,0.0
14,-0.27191378447710526
15,-11.49179705851991
16,-3.0517747092983429
17,-9.798586560114814
18,0.1112452085414524
2,1, 1, 1, 0, 8, 0.00,15.00,Tuesday
7,-10.45
8,0.0
9,0.0
10,0.0
11,0.0
12,0.0
13,0.0
14,-0.30842513905190607
15,-11.444232576295779
16,-3.0561886887887796
17,-9.764901407180333
18,0.07361329532019515
2,1, 1, 1, 0, 8,15.00,30.00,Tuesday
7,-10.3
8,77.83635125570177
9,1.0
10,22.819555959623899
11,1.0
12,22.819555959623899
13,77.83635125570177
14,-0.2384114577086054
15,-9.77141260524127
16,-2.6631558358002396
17,-9.364374674889178
18,0.05085362098501672
2,1, 1, 1, 0, 8,30.00,45.00,Tuesday
7,-10.15
8,382.80225054662847
9,1.0
10,109.75755355442667
11,1.0
12,109.75755355442667
13,382.80225054662847
14,0.12139503639598735
15,-3.413137079387748
16,-1.054191135105441
17,-7.98523107733962
18,0.08346475250503165
2,1, 1, 1, 0, 8,45.00,60.00,Tuesday
7,-10.0
8,698.1846215562486
9,1.0
10,195.8764694434918
11,1.0
12,195.8764694434918
13,698.1846215562486
14,0.5726465418861351
15,3.080456504462909
16,0.7153458000661885
17,-6.611522379052303
18,0.17599971635658433
2,1, 1, 1, 0, 9, 0.00,15.00,Tuesday
7,-9.725
8,1014.638905935737
9,1.0
10,278.97248314719988
11,1.0
12,278.97248314719988
13,1014.638905935737
14,0.9097995610997594
15,8.260501001152674
16,2.289385597147657
17,-5.409157809435612
18,0.31521611633394217
2,1, 1, 1, 0, 9,15.00,30.00,Tuesday
7,-9.45
8,1350.5681277582674
9,1.0
10,364.91995730569456
11,1.0
12,364.91995730569456
13,1350.5681277582674
14,1.2811650517855847
15,13.342277593030105
16,3.8450473896123755
17,-4.23983402197706
18,0.49374297269780167
2,1, 1, 1, 0, 9,30.00,45.00,Tuesday
7,-9.175
8,1576.0729545191558
9,1.0
10,420.35879993239237
11,1.0
12,420.35879993239237
13,1576.0729545191558
14,1.5334784937519726
15,16.102072205850456
16,4.856182789734589
17,-3.509955050221606
18,0.6926496540309033
2,1, 1, 1, 0, 9,45.00,60.00,Tuesday
7,-8.9
8,1811.3807481081638
9,1.0
10,478.00138373643099
11,1.0
12,478.00138373643099
13,1811.3807481081638
14,1.8312516936441985
15,19.09783735048755
16,5.8758074776581
17,-2.7639013256886075
18,0.9030064317329047
2,1, 1, 1, 0,10, 0.00,15.00,Tuesday
7,-8.350000000000002
8,2052.886747243369
9,1.0
10,536.9185644770597
11,1.0
12,536.9185644770597
13,2052.886747243369
14,2.06941633427831
15,20.21889484572049
16,6.913071210657108
17,-2.0158796366882827
18,1.1303096703448692
2,1, 1, 1, 0,10,15.00,30.00,Tuesday
7,-7.800000000000001
8,2303.7230513037227
9,1.0
10,598.0969199229219
11,1.0
12,598.0969199229219
13,2303.7230513037227
14,2.332548023962187
15,21.474538275157049
16,7.968383785801905
17,-1.2717111432712046
18,1.3730182328697536
2,1, 1, 1, 0,10,30.00,45.00,Tuesday
7,-7.25
8,2471.2624626274
9,1.0
10,637.6133352894237
11,1.0
12,637.6133352894237
13,2471.2624626274
14,2.527978942668961
15,21.53663531056743
16,8.699187788270365
17,-0.773552280359695
18,1.6168755667379176
2,1, 1, 1, 0,10,45.00,60.00,Tuesday
7,-6.7
8,2636.784816009174
9,1.0
10,676.6412284283772
11,1.0
12,676.6412284283772
13,2636.784816009174
14,2.7397640898816495
15,21.698715848823423
16,9.405890300674514
17,-0.2799329423735344
18,1.8530036588539923
2,1, 1, 1, 0,11, 0.00,15.00,Tuesday
7,-6.275
8,2799.5545130672337
9,1.0
10,715.0112779846514
11,1.0
12,715.0112779846514
13,2799.5545130672337
14,3.02833933192077
15,23.796007870727356
16,10.167772216046388
17,0.468982884304296
18,2.0854975264547694
2,1, 1, 1, 0,11,15.00,30.00,Tuesday
7,-5.85
8,2958.555005634146
9,1.0
10,752.5077794605232
11,1.0
12,752.5077794605232
13,2958.555005634146
14,3.30300663949617
15,25.73087839023189
16,10.916223126099908
17,1.1968024701701552
18,2.319436123812441
2,1, 1, 1, 0,11,30.00,45.00,Tuesday
7,-5.425
8,2916.1314901115258
9,1.0
10,742.5988714321785
11,1.0
12,742.5988714321785
13,2916.1314901115258
14,3.4561540677099464
15,25.58269499643629
16,11.013647600934974
17,1.4632763740817155
18,2.5394475587891116
2,1, 1, 1, 0,11,45.00,60.00,Tuesday
7,-5.0
8,2852.9337678755075
9,1.0
10,727.8169025450712
11,1.0
12,727.8169025450712
13,2852.9337678755075
14,3.6055775191153489
15,25.353146776279176
16,11.023671620251264
17,1.6927370496269987
18,2.7347074077041579
2,1, 1, 1, 0,12, 0.00,15.00,Tuesday
7,-4.575
8,2742.392684181217
9,1.0
10,700.3759009170325
11,1.0
12,700.3759009170325
13,2742.392684181217
14,3.705701458974607
15,24.61027336054752
16,10.863371352698323
17,1.8439809352479415
18,2.9000160816456725
2,1, 1, 1, 0,12,15.00,30.00,Tuesday
7,-4.15
8,2658.6559047656876
9,1.0
10,681.6705029034473
11,1.0
12,681.6705029034473
13,2658.6559047656876
14,3.8247407439265155
15,24.27952518361665
16,10.811211425632905
17,2.0788371331541386
18,3.042508259996651
2,1, 1, 1, 0,12,30.00,45.00,Tuesday
7,-3.7249999999999998
8,2331.5894843835787
9,1.0
10,602.01865277251
11,1.0
12,602.01865277251
13,2331.5894843835787
14,3.7378705716426077
15,21.25111886106467
16,9.912014732965986
17,1.7464741515371998
18,3.144161943967295
2,1, 1, 1, 0,12,45.00,60.00,Tuesday
7,-3.3
8,1902.6474117955254
9,1.0
10,493.55004396206007
11,1.0
12,493.55004396206007
13,1902.6474117955254
14,3.5583250982904026
15,17.072347265558557
16,8.524605975754014
17,1.1164885748206644
18,3.1865694306914427
2,1, 1, 1, 0,13, 0.00,15.00,Tuesday
7,-3.0249999999999996
8,1566.472447216765
9,1.0
10,412.335026418112
11,1.0
12,412.335026418112
13,1566.472447216765
14,3.4313566296762296
15,14.227369418777766
16,7.454380332882522
17,0.6837525967905549
18,3.182807671776236
2,1, 1, 1, 0,13,15.00,30.00,Tuesday
7,-2.75
8,1143.4706186883682
9,1.0
10,305.94037763660148
11,1.0
12,305.94037763660148
13,1143.4706186883682
14,3.1735643977389547
15,10.053714047097677
16,5.962006495418734
17,-0.02386821157574559
18,3.1394143446216624
2,1, 1, 1, 0,13,30.00,45.00,Tuesday
7,-2.475
8,1041.9696487744569
9,1.0
10,281.0763483922329
11,1.0
12,281.0763483922329
13,1041.9696487744569
14,3.1609249499472735
15,9.539982437964895
16,5.642742090514275
17,0.049795678821908499
18,3.084945458545691
2,1, 1, 1, 0,13,45.00,60.00,Tuesday
7,-2.2
8,942.5912266126629
9,1.0
10,256.7721209415886
11,1.0
12,256.7721209415886
13,942.5912266126629
14,3.131021231100795
15,8.932902676904839
16,5.376850845220133
17,0.1468717937314068
18,3.039664228991256
2,1, 1, 1, 0,14, 0.00,15.00,Tuesday
7,-1.9250000000000003
8,768.7481973099971
9,1.0
10,210.73276284570657
11,1.0
12,210.73276284570657
13,768.7481973099971
14,3.025072343993639
15,7.384226579555969
16,4.741368204823402
17,-0.01810246269462823
18,2.9999675149873665
2,1, 1, 1, 0,14,15.00,30.00,Tuesday
7,-1.6500000000000002
8,680.8641971716577
9,1.0
10,189.38488290342594
11,1.0
12,189.38488290342594
13,680.8641971716577
14,3.0044343148092644
15,6.977032976743646
16,4.475306623132042
17,0.05800803113811526
18,2.9657204783401904
2,1, 1, 1, 0,14,30.00,45.00,Tuesday
7,-1.375
8,649.6853484819967
9,1.0
10,179.3940297802914
11,1.0
12,179.3940297802914
13,649.6853484819967
14,3.00657987666011
15,7.097540304432832
16,4.409785211568305
17,0.258411327331487
18,2.9384593232257476
2,1, 1, 1, 0,14,45.00,60.00,Tuesday
7,-1.1
8,617.8627699587247
9,1.0
10,169.43349014176136
11,1.0
12,169.43349014176136
13,617.8627699587247
14,3.0070206186315087
15,7.194611966204121
16,4.340054232326736
17,0.45597735775606909
18,2.9184358620474177
2,1, 1, 1, 0,15, 0.00,15.00,Tuesday
7,-1.1
8,649.6420380112065
9,1.0
10,178.15692317953907
11,1.0
12,178.15692317953907
13,649.6420380112065
14,3.0568321413510315
15,8.008889984000025
16,4.4978401303316108
17,0.6043594569946436
18,2.908328203228941
2,1, 1, 1, 0,15,15.00,30.00,Tuesday
7,-1.1
8,609.8338124401078
9,1.0
10,166.40516310952945
11,1.0
12,166.40516310952945
13,609.8338124401078
14,3.0205482787276378
15,7.645479990102742
16,4.322208093581821
17,0.5156952935054733
18,2.9022743803619734
2,1, 1, 1, 0,15,30.00,45.00,Tuesday
7,-1.1
8,513.174322336492
9,1.0
10,140.8967369711617
11,1.0
12,140.8967369711617
13,513.174322336492
14,2.9301882043213265
15,6.437635333124974
16,3.886346559877097
17,0.22807647575598367
18,2.8895732601269454
2,1, 1, 1, 0,15,45.00,60.00,Tuesday
7,-1.1
8,421.4546892911661
9,1.0
10,116.57355796743004
11,1.0
12,116.57355796743004
13,421.4546892911661
14,2.8370752694425795
15,5.225333200807809
16,3.441118028621986
17,-0.062028788425323
18,2.862203448131262
2,1, 1, 1, 0,16, 0.00,15.00,Tuesday
7,-1.1
8,333.8477508930492
9,1.0
10,93.14939272689483
11,1.0
12,93.14939272689483
13,333.8477508930492
14,2.7442782513944086
15,4.166677520708182
16,3.018787108799245
17,-0.2943823845064344
18,2.821016792867284
2,1, 1, 1, 0,16,15.00,30.00,Tuesday
7,-1.1
8,206.8104610791499
9,1.0
10,57.94047897402063
11,1.0
12,57.94047897402063
13,206.8104610791499
14,2.581604465613763
15,2.0372355562830357
16,2.333427983790159
17,-0.7307685683252885
18,2.7627694479888538
2,1, 1, 1, 0,16,30.00,45.00,Tuesday
7,-1.1
8,160.05627499213206
9,1.0
10,45.38251793443488
11,1.0
12,45.38251793443488
13,160.05627499213206
14,2.5243100488187726
15,1.4198546854031298
16,2.0761202301015375
17,-0.8582535159583813
18,2.694924149116884
2,1, 1, 1, 0,16,45.00,60.00,Tuesday
7,-1.1
8,111.56756030757345
9,1.0
10,32.02625108222755
11,1.0
12,32.02625108222755
13,111.56756030757345
14,2.4337278835078539
15,0.5473684893508618
16,1.8153828272656938
17,-1.003287985971042
18,2.623812263285466
2,1, 1, 1, 0,17, 0.00,15.00,Tuesday
7,-1.1
8,61.144596875686087
9,1.0
10,17.762198626050539
11,1.0
12,17.762198626050539
13,61.144596875686087
14,2.3142743646043195
15,-0.7163826933189508
16,1.4920247730985353
17,-1.2813388632988563
18,2.546797403357852
2,1, 1, 1, 0,17,15.00,30.00,Tuesday
7,-1.1
8,0.0
9,0.0
10,0.0
11,0.0
12,0.0
13,0.0
14,2.1463399603811257
15,-2.559036110684723
16,1.0902468860872432
17,-1.6347773752378317
18,2.4529555276762577
2,1, 1, 1, 0,17,30.00,45.00,Tuesday
7,-1.1
8,0.0
9,0.0
10,0.0
11,0.0
12,0.0
13,0.0
14,2.100368800418925
15,-2.7001975001869948
16,1.0043411026030072
17,-1.6902978291180944
18,2.358945247171998
2,1, 1, 1, 0,17,45.00,60.00,Tuesday
7,-1.1
8,0.0
9,0.0
10,0.0
11,0.0
12,0.0
13,0.0
14,2.0395951946974559
15,-2.901095416830975
16,0.9472209000323346
17,-1.748368120344253
18,2.279316443133101
2,1, 1, 1, 0,18, 0.00,15.00,Tuesday
7,-1.25
8,0.0
9,0.0
10,0.0
11,0.0
12,0.0
13,0.0
14,1.9902941422859884
15,-3.0476657183960027
16,0.862894982470209
17,-1.885143919298173
18,2.216625034282208
2,1, 1, 1, 0,18,15.00,30.00,Tuesday
7,-1.4
8,0.0
9,0.0
10,0.0
11,0.0
12,0.0
13,0.0
14,1.9459266691756958
15,-3.2000282409147839
16,0.7917977312840776
17,-2.0112645498820145
18,2.1669063140445834
2,1, 1, 1, 0,18,30.00,45.00,Tuesday
7,-1.5499999999999999
8,0.0
9,0.0
10,0.0
11,0.0
12,0.0
13,0.0
14,1.9060087181115709
15,-3.3517504401497719
16,0.7247072077786925
17,-2.1366045080309279
18,2.12517935528864
2,1, 1, 1, 0,18,45.00,60.00,Tuesday
7,-1.7
8,0.0
9,0.0
10,0.0
11,0.0
12,0.0
13,0.0
14,1.8695078396409009
15,-3.503644064055196
16,0.660759848511475
17,-2.2608392575211839
18,2.0879810432086818
2,1, 1, 1, 0,19, 0.00,15.00,Tuesday
7,-1.825
8,0.0
9,0.0
10,0.0
11,0.0
12,0.0
13,0.0
14,1.859921334211779
15,-3.3412007821852698
16,0.627406301902738
17,-2.2988292391640359
18,2.057021373328049
2,1, 1, 1, 0,19,15.00,30.00,Tuesday
7,-1.9500000000000002
8,0.0
9,0.0
10,0.0
11,0.0
12,0.0
13,0.0
14,1.8500464521299823
15,-3.2618136668655866
16,0.5950212269117969
17,-2.356187621582876
18,2.0337560474095857
2,1, 1, 1, 0,19,30.00,45.00,Tuesday
7,-2.075
8,0.0
9,0.0
10,0.0
11,0.0
12,0.0
13,0.0
14,1.8349677116659509
15,-3.332182560286474
16,0.5560792864893074
17,-2.4442507670842135
18,2.0164302302420809
2,1, 1, 1, 0,19,45.00,60.00,Tuesday
7,-2.2
8,0.0
9,0.0
10,0.0
11,0.0
12,0.0
13,0.0
14,1.8232229958164719
15,-3.2988226687168229
16,0.5249034899545677
17,-2.515850732421768
18,2.0020340798304687
2,1, 1, 1, 0,20, 0.00,15.00,Tuesday
7,-1.9250000000000003
8,0.0
9,0.0
10,0.0
11,0.0
12,0.0
13,0.0
14,1.8276352911679013
15,-2.9948419501317256
16,0.5938135887299723
17,-2.2977323557087176
18,1.9906745086804663
2,1, 1, 1, 0,20,15.00,30.00,Tuesday
7,-1.6500000000000002
8,0.0
9,0.0
10,0.0
11,0.0
12,0.0
13,0.0
14,1.832875138025999
15,-2.694129849805865
16,0.6624096558565498
17,-2.069741463168384
18,1.9826588266050707
2,1, 1, 1, 0,20,30.00,45.00,Tuesday
7,-1.375
8,0.0
9,0.0
10,0.0
11,0.0
12,0.0
13,0.0
14,1.8397271096640749
15,-2.3948373822857578
16,0.7327870890825352
17,-1.83960211747808
18,1.9775853700909636
2,1, 1, 1, 0,20,45.00,60.00,Tuesday
7,-1.1
8,0.0
9,0.0
10,0.0
11,0.0
12,0.0
13,0.0
14,1.848363809378187
15,-2.096922455248048
16,0.8051826443762025
17,-1.6075969381554388
18,1.9747913068162984
2,1, 1, 1, 0,21, 0.00,15.00,Tuesday
7,-1.25
8,0.0
9,0.0
10,0.0
11,0.0
12,0.0
13,0.0
14,1.8106246906660102
15,-2.3895996170520039
16,0.7448104324242877
17,-1.7507183780189167
18,1.967690135362185
2,1, 1, 1, 0,21,15.00,30.00,Tuesday
7,-1.4
8,0.0
9,0.0
10,0.0
11,0.0
12,0.0
13,0.0
14,1.7736869526691553
15,-2.612171688208616
16,0.6863948795000283
17,-1.8840233050643179
18,1.9513919432062528
2,1, 1, 1, 0,21,30.00,45.00,Tuesday
7,-1.5499999999999999
8,0.0
9,0.0
10,0.0
11,0.0
12,0.0
13,0.0
14,1.722546587686252
15,-2.97153054449762
16,0.615246081974874
17,-2.0441926619662356
18,1.924365682597306
2,1, 1, 1, 0,21,45.00,60.00,Tuesday
7,-1.7
8,0.0
9,0.0
10,0.0
11,0.0
12,0.0
13,0.0
14,1.6661598577499397
15,-3.440511550914604
16,0.5313451697630285
17,-2.2315951950263868
18,1.888287978335827
2,1, 1, 1, 0,22, 0.00,15.00,Tuesday
7,-1.5499999999999999
8,0.0
9,0.0
10,0.0
11,0.0
12,0.0
13,0.0
14,1.684133674383386
15,-2.9326834837850019
16,0.5680289486454626
17,-2.0630440046865035
18,1.8571173630269447
2,1, 1, 1, 0,22,15.00,30.00,Tuesday
7,-1.4
8,0.0
9,0.0
10,0.0
11,0.0
12,0.0
13,0.0
14,1.6942034890772269
15,-2.5887335155791835
16,0.6164433741138851
17,-1.9042048460841557
18,1.838842739471979
2,1, 1, 1, 0,22,30.00,45.00,Tuesday
7,-1.25
8,0.0
9,0.0
10,0.0
11,0.0
12,0.0
13,0.0
14,1.7016568210812982
15,-2.3624821652284249
16,0.6578008392949073
17,-1.7690913192052449
18,1.8317486444070357
2,1, 1, 1, 0,22,45.00,60.00,Tuesday
7,-1.1
8,0.0
9,0.0
10,0.0
11,0.0
12,0.0
13,0.0
14,1.7129060080938373
15,-2.068835275459315
16,0.7110941933579511
17,-1.6111557401747519
18,1.830940055779161
2,1, 1, 1, 0,23, 0.00,15.00,Tuesday
7,-1.25
8,0.0
9,0.0
10,0.0
11,0.0
12,0.0
13,0.0
14,1.6756470917466966
15,-2.372633823706087
16,0.6114813082459705
17,-1.8733049056478422
18,1.826212338115558
2,1, 1, 1, 0,23,15.00,30.00,Tuesday
7,-1.4
8,0.0
9,0.0
10,0.0
11,0.0
12,0.0
13,0.0
14,1.6399769714246278
15,-2.677177837008253
16,0.5042785693938754
17,-2.1549620779965155
18,1.8117816199907598
2,1, 1, 1, 0,23,30.00,45.00,Tuesday
7,-1.5499999999999999
8,0.0
9,0.0
10,0.0
11,0.0
12,0.0
13,0.0
14,1.6006216214537615
15,-2.982298589549512
16,0.3961411853398431
17,-2.436991677258902
18,1.7879422641456869
2,1, 1, 1, 0,23,45.00,60.00,Tuesday
7,-1.7
8,0.0
9,0.0
10,0.0
11,0.0
12,0.0
13,0.0
14,1.557563608392815
15,-3.2877772703022378
16,0.28493695913152808
17,-2.7196705488407817
18,1.757259037913795
2,1, 1, 1, 0,24, 0.00,15.00,Tuesday
7,-1.7
8,0.0
9,0.0
10,0.0
11,0.0
12,0.0
13,0.0
14,1.5327955007195664
15,-3.341456280895908
16,0.24527200723343868
17,-2.7786888289225546
18,1.725321581265945
2,1, 1, 1, 0,24,15.00,30.00,Tuesday
7,-1.7
8,0.0
9,0.0
10,0.0
11,0.0
12,0.0
13,0.0
14,1.5049163295650612
15,-3.395957076259189
16,0.20895964845738036
17,-2.8362451541895554
18,1.6953616785528934
2,1, 1, 1, 0,24,30.00,45.00,Tuesday
7,-1.7
8,0.0
9,0.0
10,0.0
11,0.0
12,0.0
13,0.0
14,1.4777525290226219
15,-3.4503153465871718
16,0.1720592856451617
17,-2.893978622209943
18,1.6676707431961875
2,1, 1, 1, 0,24,45.00,60.00,Tuesday
7,-1.7
8,0.0
9,0.0
10,0.0
11,0.0
12,0.0
13,0.0
14,1.4512226829530018
15,-3.504672486962291
16,0.1358157852862405
17,-2.9514612374921969
18,1.6414366216533694
End of Data
 Number of Records Written=        1152
