Program Version,EnergyPlus, Version 9.5.0-de239b2e5f, YMD=2023.02.16 21:09
1,5,Environment Title[],Latitude[deg],Longitude[deg],Time Zone[],Elevation[m]
2,8,Day of Simulation[],Month[],Day of Month[],DST Indicator[1=yes 0=no],Hour[],StartMinute[],EndMinute[],DayType
3,5,Cumulative Day of Simulation[],Month[],Day of Month[],DST Indicator[1=yes 0=no],DayType  ! When Daily Report Variables Requested
4,2,Cumulative Days of Simulation[],Month[]  ! When Monthly Report Variables Requested
5,1,Cumulative Days of Simulation[] ! When Run Period Report Variables Requested
6,1,Calendar Year of Simulation[] ! When Annual Report Variables Requested
7,1,Environment,Site Outdoor Air Drybulb Temperature [C] !TimeStep
8,1,ZONE ONE,Zone Windows Total Transmitted Solar Radiation Rate [W] !TimeStep
9,1,ZN001:WALL001,Surface Outside Face Sunlit Fraction [] !TimeStep
10,1,ZN001:WALL001,Surface Outside Face Incident Solar Radiation Rate per Area [W/m2] !TimeStep
11,1,ZN001:WALL001:WIN001,Surface Outside Face Sunlit Fraction [] !TimeStep
12,1,ZN001:WALL001:WIN001,Surface Outside Face Incident Solar Radiation Rate per Area [W/m2] !TimeStep
13,1,ZN001:WALL001:WIN001,Surface Window Transmitted Solar Radiation Rate [W] !TimeStep
14,1,ZN001:WALL001,Surface Inside Face Temperature [C] !TimeStep
15,1,ZN001:WALL001,Surface Outside Face Temperature [C] !TimeStep
16,1,ZN001:WALL001:WIN001,Surface Inside Face Temperature [C] !TimeStep
17,1,ZN001:WALL001:WIN001,Surface Outside Face Temperature [C] !TimeStep
18,1,ZONE ONE,Zone Mean Air Temperature [C] !TimeStep
End of Data Dictionary
1,RUN PERIOD 1,  41.98, -87.92,  -6.00, 201.00
2,1, 1, 1, 0, 1, 0.00,15.00,Tuesday
7,-4.324999999999999
8,0.0
9,0.0
10,0.0
11,0.0
12,0.0
13,0.0
14,5.4484585989174889
15,-5.904729707153811
16,2.3865909205371738
17,-3.839855869174926
18,5.884401582901628
2,1, 1, 1, 0, 1,15.00,30.00,Tuesday
7,-6.949999999999999
8,0.0
9,0.0
10,0.0
11,0.0
12,0.0
13,0.0
14,5.26195220751199
15,-8.372312735077406
16,1.6255245186744674
17,-5.808663284066142
18,5.78044310176347
2,1, 1, 1, 0, 1,30.00,45.00,Tuesday
7,-9.575
8,0.0
9,0.0
10,0.0
11,0.0
12,0.0
13,0.0
14,5.053896934951423
15,-10.84797993257618
16,0.8584062673676272
17,-7.783542644952945
18,5.642205270760708
2,1, 1, 1, 0, 1,45.00,60.00,Tuesday
7,-12.2
8,0.0
9,0.0
10,0.0
11,0.0
12,0.0
13,0.0
14,4.828807596499328
15,-13.330271910625433
16,0.07662461215397798
17,-9.766583943364254
18,5.480307755891214
2,1, 1, 1, 0, 2, 0.00,15.00,Tuesday
7,-12.075
8,0.0
9,0.0
10,0.0
11,0.0
12,0.0
13,0.0
14,4.75575617178629
15,-13.131448798630478
16,0.03154415246945064
17,-9.62339659995223
18,5.335308065965815
2,1, 1, 1, 0, 2,15.00,30.00,Tuesday
7,-11.95
8,0.0
9,0.0
10,0.0
11,0.0
12,0.0
13,0.0
14,4.669438223974415
15,-12.954446060985119
16,0.014590637364619852
17,-9.505298396195201
18,5.225166802700326
2,1, 1, 1, 0, 2,30.00,45.00,Tuesday
7,-11.825
8,0.0
9,0.0
10,0.0
11,0.0
12,0.0
13,0.0
14,4.60157128191863
15,-12.776224800514133
16,-0.0043771710041937699
17,-9.366375609540569
18,5.143580475932424
2,1, 1, 1, 0, 2,45.00,60.00,Tuesday
7,-11.7
8,0.0
9,0.0
10,0.0
11,0.0
12,0.0
13,0.0
14,4.54579215870909
15,-12.598088324226687
16,-0.002405635432296549
17,-9.242710191071297
18,5.078588273133422
2,1, 1, 1, 0, 3, 0.00,15.00,Tuesday
7,-11.549999999999999
8,0.0
9,0.0
10,0.0
11,0.0
12,0.0
13,0.0
14,4.491970620145228
15,-12.472076395165761
16,0.0032558702824871945
17,-9.088285289171268
18,5.0206209622279849
2,1, 1, 1, 0, 3,15.00,30.00,Tuesday
7,-11.399999999999999
8,0.0
9,0.0
10,0.0
11,0.0
12,0.0
13,0.0
14,4.441628110433743
15,-12.347441319779172
16,0.01866950793032629
17,-8.95221578704161
18,4.965145315461652
2,1, 1, 1, 0, 3,30.00,45.00,Tuesday
7,-11.25
8,0.0
9,0.0
10,0.0
11,0.0
12,0.0
13,0.0
14,4.3922296124262829
15,-12.2243310825953
16,0.0325427796689155
17,-8.807236101269382
18,4.910821251149992
2,1, 1, 1, 0, 3,45.00,60.00,Tuesday
7,-11.1
8,0.0
9,0.0
10,0.0
11,0.0
12,0.0
13,0.0
14,4.3434403097243179
15,-12.102805162633946
16,0.046419849070503008
17,-8.661522815474314
18,4.8574382994653499
2,1, 1, 1, 0, 4, 0.00,15.00,Tuesday
7,-11.1
8,0.0
9,0.0
10,0.0
11,0.0
12,0.0
13,0.0
14,4.290623662935435
15,-12.074416096928287
16,-0.016740446495248308
17,-8.70211714965103
18,4.803674342189975
2,1, 1, 1, 0, 4,15.00,30.00,Tuesday
7,-11.1
8,0.0
9,0.0
10,0.0
11,0.0
12,0.0
13,0.0
14,4.238164173287021
15,-12.047132729071452
16,-0.07159304942632616
17,-8.749748209920938
18,4.7490973403789369
2,1, 1, 1, 0, 4,30.00,45.00,Tuesday
7,-11.1
8,0.0
9,0.0
10,0.0
11,0.0
12,0.0
13,0.0
14,4.1853662297244489
15,-12.021383863928027
16,-0.12527872850296263
17,-8.797287896307012
18,4.693961282258165
2,1, 1, 1, 0, 4,45.00,60.00,Tuesday
7,-11.1
8,0.0
9,0.0
10,0.0
11,0.0
12,0.0
13,0.0
14,4.132401434213094
15,-11.997034709824112
16,-0.17862863012885556
17,-8.843812558850573
18,4.638624599834433
2,1, 1, 1, 0, 5, 0.00,15.00,Tuesday
7,-10.975
8,0.0
9,0.0
10,0.0
11,0.0
12,0.0
13,0.0
14,4.085267923991531
15,-11.875113378026717
16,-0.1802809895410178
17,-8.766975318244818
18,4.584588542954032
2,1, 1, 1, 0, 5,15.00,30.00,Tuesday
7,-10.85
8,0.0
9,0.0
10,0.0
11,0.0
12,0.0
13,0.0
14,4.038419816605667
15,-11.753259166251742
16,-0.18513557758228672
17,-8.682248642725995
18,4.5324184281590409
2,1, 1, 1, 0, 5,30.00,45.00,Tuesday
7,-10.725
8,0.0
9,0.0
10,0.0
11,0.0
12,0.0
13,0.0
14,3.992729142802878
15,-11.631379148040163
16,-0.18986391107489454
17,-8.596438191665016
18,4.481822388781814
2,1, 1, 1, 0, 5,45.00,60.00,Tuesday
7,-10.6
8,0.0
9,0.0
10,0.0
11,0.0
12,0.0
13,0.0
14,3.9479930128896845
15,-11.509507846922379
16,-0.19378174876459298
17,-8.510265315450397
18,4.432340883190302
2,1, 1, 1, 0, 6, 0.00,15.00,Tuesday
7,-10.6
8,0.0
9,0.0
10,0.0
11,0.0
12,0.0
13,0.0
14,3.8961547639582809
15,-11.510525635549226
16,-0.23528094745057616
17,-8.514940557565126
18,4.3821990848463649
2,1, 1, 1, 0, 6,15.00,30.00,Tuesday
7,-10.6
8,0.0
9,0.0
10,0.0
11,0.0
12,0.0
13,0.0
14,3.8449589984843315
15,-11.511485716053926
16,-0.2750675997521057
17,-8.525695290427109
18,4.330635783329808
2,1, 1, 1, 0, 6,30.00,45.00,Tuesday
7,-10.6
8,0.0
9,0.0
10,0.0
11,0.0
12,0.0
13,0.0
14,3.7931977274476869
15,-11.512489201319172
16,-0.31456665872542546
17,-8.537116407438646
18,4.277965052806604
2,1, 1, 1, 0, 6,45.00,60.00,Tuesday
7,-10.6
8,0.0
9,0.0
10,0.0
11,0.0
12,0.0
13,0.0
14,3.7411107899159474
15,-11.513490337642704
16,-0.3544016505115337
17,-8.548743231909498
18,4.22474817584415
2,1, 1, 1, 0, 7, 0.00,15.00,Tuesday
7,-10.6
8,0.0
9,0.0
10,0.0
11,0.0
12,0.0
13,0.0
14,3.6909561579414738
15,-11.490023113503819
16,-0.4064580370970816
17,-8.588925712733385
18,4.1715967079391229
2,1, 1, 1, 0, 7,15.00,30.00,Tuesday
7,-10.6
8,0.0
9,0.0
10,0.0
11,0.0
12,0.0
13,0.0
14,3.640662563393124
15,-11.467775998477352
16,-0.4561280439844495
17,-8.629482109670335
18,4.11884804247888
2,1, 1, 1, 0, 7,30.00,45.00,Tuesday
7,-10.6
8,0.0
9,0.0
10,0.0
11,0.0
12,0.0
13,0.0
14,3.5906253141164785
15,-11.446660762637184
16,-0.5051505857462075
17,-8.669161533318402
18,4.066516155218055
2,1, 1, 1, 0, 7,45.00,60.00,Tuesday
7,-10.6
8,0.0
9,0.0
10,0.0
11,0.0
12,0.0
13,0.0
14,3.540866948895219
15,-11.42660974464394
16,-0.553556668808028
17,-8.70773814055633
18,4.014521265076218
2,1, 1, 1, 0, 8, 0.00,15.00,Tuesday
7,-10.45
8,0.0
9,0.0
10,0.0
11,0.0
12,0.0
13,0.0
14,3.4907015082187069
15,-11.377652902612672
16,-0.5625242077254598
17,-8.653566729445629
18,3.96277393338757
2,1, 1, 1, 0, 8,15.00,30.00,Tuesday
7,-10.3
8,164.70730277996078
9,1.0
10,22.819555959623899
11,1.0
12,22.819555959623899
13,164.70730277996078
14,3.5637772532437816
15,-9.703997005769363
16,-0.24633637545787225
17,-8.306616382169182
18,3.9299004703713518
2,1, 1, 1, 0, 8,30.00,45.00,Tuesday
7,-10.15
8,808.7145075753374
9,1.0
10,109.75755355442667
11,1.0
12,109.75755355442667
13,808.7145075753374
14,3.9742393420101309
15,-3.3341632740477049
16,1.0596594400359437
17,-7.1400563138595889
18,3.9677846765265758
2,1, 1, 1, 0, 8,45.00,60.00,Tuesday
7,-10.0
8,1470.5605139501664
9,1.0
10,195.8764694434918
11,1.0
12,195.8764694434918
13,1470.5605139501664
14,4.523561177586063
15,3.1731970053123574
16,2.4700570907228895
17,-5.94968099489563
18,4.082807389836463
2,1, 1, 1, 0, 9, 0.00,15.00,Tuesday
7,-9.725
8,2130.1268679617157
9,1.0
10,278.97248314719988
11,1.0
12,278.97248314719988
13,2130.1268679617157
14,4.915633737465001
15,8.321860148668192
16,3.8956312982176088
17,-4.881552276618322
18,4.253410582430885
2,1, 1, 1, 0, 9,15.00,30.00,Tuesday
7,-9.45
8,2825.385387072841
9,1.0
10,364.91995730569456
11,1.0
12,364.91995730569456
13,2825.385387072841
14,5.362888055679086
15,13.405739282378738
16,5.414293720942396
17,-3.794450321868908
18,4.469924815370282
2,1, 1, 1, 0, 9,30.00,45.00,Tuesday
7,-9.175
8,3285.3657815806207
9,1.0
10,420.35879993239237
11,1.0
12,420.35879993239237
13,3285.3657815806207
14,5.682563680370174
15,16.162867999183346
16,6.388230898314987
17,-3.1194214467084295
18,4.710474773806523
2,1, 1, 1, 0, 9,45.00,60.00,Tuesday
7,-8.9
8,3762.8630174369429
9,1.0
10,478.00138373643099
11,1.0
12,478.00138373643099
13,3762.8630174369429
14,6.054868428899343
15,19.15790778710398
16,7.361551972451139
17,-2.430590031131885
18,4.964571543213476
2,1, 1, 1, 0,10, 0.00,15.00,Tuesday
7,-8.350000000000002
8,4250.448423053731
9,1.0
10,536.9185644770597
11,1.0
12,536.9185644770597
13,4250.448423053731
14,6.37393876587141
15,20.27491986917888
16,8.34665102185727
17,-1.7508881231921123
18,5.2324220061744699
2,1, 1, 1, 0,10,15.00,30.00,Tuesday
7,-7.800000000000001
8,4754.8784400001809
9,1.0
10,598.0969199229219
11,1.0
12,598.0969199229219
13,4754.8784400001809
14,6.721923200526065
15,21.52745320533776
16,9.346754032163517
17,-1.070695077096218
18,5.519737646721668
2,1, 1, 1, 0,10,30.00,45.00,Tuesday
7,-7.25
8,5085.790385716765
9,1.0
10,637.6133352894237
11,1.0
12,637.6133352894237
13,5085.790385716765
14,6.992553152672055
15,21.586722902085659
16,10.061953881988189
17,-0.6062478673342184
18,5.640560985958821
2,1, 1, 1, 0,10,45.00,60.00,Tuesday
7,-6.7
8,5411.8281742364
9,1.0
10,676.6412284283772
11,1.0
12,676.6412284283772
13,5411.8281742364
14,7.241988651509536
15,21.745377041939379
16,10.731661915031737
17,-0.1488208653083234
18,5.878464457595724
2,1, 1, 1, 0,11, 0.00,15.00,Tuesday
7,-6.275
8,5731.93450410702
9,1.0
10,715.0112779846514
11,1.0
12,715.0112779846514
13,5731.93450410702
14,7.540777756423398
15,23.84217856414158
16,11.451366082315986
17,0.5606044371561438
18,6.062948849746125
2,1, 1, 1, 0,11,15.00,30.00,Tuesday
7,-5.85
8,6044.505928231053
9,1.0
10,752.5077794605232
11,1.0
12,752.5077794605232
13,6044.505928231053
14,7.905455515533286
15,25.779002365134767
16,12.190102938203723
17,1.2592765856921915
18,6.494855731768372
2,1, 1, 1, 0,11,30.00,45.00,Tuesday
7,-5.425
8,5951.610197095371
9,1.0
10,742.5988714321785
11,1.0
12,742.5988714321785
13,5951.610197095371
14,8.18570929583392
15,25.63264902672298
16,12.39866365563762
17,1.549407246369583
18,6.877469021523963
2,1, 1, 1, 0,11,45.00,60.00,Tuesday
7,-5.0
8,5818.873031211445
9,1.0
10,727.8169025450712
11,1.0
12,727.8169025450712
13,5818.873031211445
14,8.428924400851735
15,25.403611182545839
16,12.523936799063506
17,1.8042368928377073
18,7.20251939724573
2,1, 1, 1, 0,12, 0.00,15.00,Tuesday
7,-4.575
8,5590.605323962885
9,1.0
10,700.3759009170325
11,1.0
12,700.3759009170325
13,5590.605323962885
14,8.600826639094695
15,24.661465188995665
16,12.488419576498984
17,1.989905339638426
18,7.476649424180675
2,1, 1, 1, 0,12,15.00,30.00,Tuesday
7,-4.15
8,5421.315289253884
9,1.0
10,681.6705029034473
11,1.0
12,681.6705029034473
13,5421.315289253884
14,8.758110926873965
15,24.33059429281928
16,12.514606370270372
17,2.241346466459561
18,7.713852178618853
2,1, 1, 1, 0,12,30.00,45.00,Tuesday
7,-3.7249999999999998
8,4759.463309286249
9,1.0
10,602.01865277251
11,1.0
12,602.01865277251
13,4759.463309286249
14,8.700940287284045
15,21.303317553082477
16,11.800149595034668
17,1.984394768481934
18,7.891771782537349
2,1, 1, 1, 0,12,45.00,60.00,Tuesday
7,-3.3
8,3887.1134706147715
9,1.0
10,493.55004396206007
11,1.0
12,493.55004396206007
13,3887.1134706147715
14,8.51356962238806
15,17.125131583518856
16,10.637023152673465
17,1.4583289258076775
18,7.9847304014087749
2,1, 1, 1, 0,13, 0.00,15.00,Tuesday
7,-3.0249999999999996
8,3209.574868603734
9,1.0
10,412.335026418112
11,1.0
12,412.335026418112
13,3209.574868603734
14,8.384999924585772
15,14.28132898641612
16,9.710416759997998
17,1.096463633697681
18,8.009971099825906
2,1, 1, 1, 0,13,15.00,30.00,Tuesday
7,-2.75
8,2350.7180690914585
9,1.0
10,305.94037763660148
11,1.0
12,305.94037763660148
13,2350.7180690914585
14,8.080164547443467
15,10.108666914569668
16,8.39365886464401
17,0.4867930833586911
18,7.978086962504614
2,1, 1, 1, 0,13,30.00,45.00,Tuesday
7,-2.475
8,2146.122384804586
9,1.0
10,281.0763483922329
11,1.0
12,281.0763483922329
13,2146.122384804586
14,8.058481248263228
15,9.596775870205257
16,8.105823773404496
17,0.5783325984723433
18,7.928937403442094
2,1, 1, 1, 0,13,45.00,60.00,Tuesday
7,-2.2
8,1945.7887113955822
9,1.0
10,256.7721209415886
11,1.0
12,256.7721209415886
13,1945.7887113955822
14,8.022085533406829
15,8.989708146135044
16,7.882809248677972
17,0.6944715915938104
18,7.888107648195434
2,1, 1, 1, 0,14, 0.00,15.00,Tuesday
7,-1.9250000000000003
8,1589.5114814468812
9,1.0
10,210.73276284570657
11,1.0
12,210.73276284570657
13,1589.5114814468812
14,7.88135573617941
15,7.442865088601979
16,7.339766553957588
17,0.586690370901465
18,7.851705235869548
2,1, 1, 1, 0,14,15.00,30.00,Tuesday
7,-1.6500000000000002
8,1411.9992818845379
9,1.0
10,189.38488290342594
11,1.0
12,189.38488290342594
13,1411.9992818845379
14,7.8471209637535399
15,7.037418913092219
16,7.121886947056055
17,0.6905323439063977
18,7.819421366644718
2,1, 1, 1, 0,14,30.00,45.00,Tuesday
7,-1.375
8,1346.6477146256526
9,1.0
10,179.3940297802914
11,1.0
12,179.3940297802914
13,1346.6477146256526
14,7.839613656024861
15,7.160615214553872
16,7.101907271426398
17,0.9166627913641605
18,7.792830272455117
2,1, 1, 1, 0,14,45.00,60.00,Tuesday
7,-1.1
8,1280.5495415471219
9,1.0
10,169.43349014176136
11,1.0
12,169.43349014176136
13,1280.5495415471219
14,7.827842286246623
15,7.259868109466596
16,7.0758678448451068
17,1.1399757318779394
18,7.771467709904995
2,1, 1, 1, 0,15, 0.00,15.00,Tuesday
7,-1.1
8,1347.8587297811799
9,1.0
10,178.15692317953907
11,1.0
12,178.15692317953907
13,1347.8587297811799
14,7.8887089487037349
15,8.077178055687878
16,7.21779342847924
17,1.2898801781007024
18,7.758996413541879
2,1, 1, 1, 0,15,15.00,30.00,Tuesday
7,-1.1
8,1266.276259391967
9,1.0
10,166.40516310952945
11,1.0
12,166.40516310952945
13,1266.276259391967
14,7.837758815790383
15,7.715064589408056
16,7.083367199722602
17,1.2363417939815805
18,7.7492478026258679
2,1, 1, 1, 0,15,30.00,45.00,Tuesday
7,-1.1
8,1067.701389865137
9,1.0
10,140.8967369711617
11,1.0
12,140.8967369711617
13,1067.701389865137
14,7.720883814217331
15,6.50896747688918
16,6.709076135181363
17,1.0089191328793277
18,7.731077514883543
2,1, 1, 1, 0,15,45.00,60.00,Tuesday
7,-1.1
8,878.6312280760801
9,1.0
10,116.57355796743004
11,1.0
12,116.57355796743004
13,878.6312280760801
14,7.594988529441925
15,5.296565911460887
16,6.338070444189555
17,0.7747349971165818
18,7.6956633285604278
2,1, 1, 1, 0,16, 0.00,15.00,Tuesday
7,-1.1
8,697.3318727282369
9,1.0
10,93.14939272689483
11,1.0
12,93.14939272689483
13,697.3318727282369
14,7.491320300765253
15,4.250003594730547
16,6.012926189991219
17,0.6231768596181837
18,7.640753796477747
2,1, 1, 1, 0,16,15.00,30.00,Tuesday
7,-1.1
8,432.9048901425401
9,1.0
10,57.94047897402063
11,1.0
12,57.94047897402063
13,432.9048901425401
14,7.294009351795998
15,2.1253866895157205
16,5.503722722868304
17,0.3160629862064752
18,7.558017085062153
2,1, 1, 1, 0,16,30.00,45.00,Tuesday
7,-1.1
8,335.64270075152066
9,1.0
10,45.38251793443488
11,1.0
12,45.38251793443488
13,335.64270075152066
14,7.216750260222246
15,1.5154480416171852
16,5.296857051837776
17,0.26640857960342148
18,7.46305132315915
2,1, 1, 1, 0,16,45.00,60.00,Tuesday
7,-1.1
8,234.3008415590897
9,1.0
10,32.02625108222755
11,1.0
12,32.02625108222755
13,234.3008415590897
14,7.099842135336374
15,0.6522722105361302
16,5.098525445804512
17,0.21191215561714217
18,7.369351773228098
2,1, 1, 1, 0,17, 0.00,15.00,Tuesday
7,-1.1
8,128.5136834333092
9,1.0
10,17.762198626050539
11,1.0
12,17.762198626050539
13,128.5136834333092
14,6.958092496359446
15,-0.5986130756496236
16,4.8398648980384
17,0.0508594137160685
18,7.276160722921386
2,1, 1, 1, 0,17,15.00,30.00,Tuesday
7,-1.1
8,0.0
9,0.0
10,0.0
11,0.0
12,0.0
13,0.0
14,6.765993352258457
15,-2.4357563603526337
16,4.493130275642102
17,-0.2367824593087562
18,7.171042009251045
2,1, 1, 1, 0,17,30.00,45.00,Tuesday
7,-1.1
8,0.0
9,0.0
10,0.0
11,0.0
12,0.0
13,0.0
14,6.7094253309558129
15,-2.5713062596722469
16,4.425598108609165
17,-0.21421429130032267
18,7.0686172222913179
2,1, 1, 1, 0,17,45.00,60.00,Tuesday
7,-1.1
8,0.0
9,0.0
10,0.0
11,0.0
12,0.0
13,0.0
14,6.636839431141795
15,-2.7620132624557849
16,4.394132875397133
17,-0.17350067060698394
18,6.98254215704496
2,1, 1, 1, 0,18, 0.00,15.00,Tuesday
7,-1.25
8,0.0
9,0.0
10,0.0
11,0.0
12,0.0
13,0.0
14,6.575544340495605
15,-2.9099043973639344
16,4.2980879267163349
17,-0.3026871975157519
18,6.913226801767015
2,1, 1, 1, 0,18,15.00,30.00,Tuesday
7,-1.4
8,0.0
9,0.0
10,0.0
11,0.0
12,0.0
13,0.0
14,6.519428864369369
15,-3.0623701931305855
16,4.215140905736462
17,-0.4286133482675609
18,6.855368478219959
2,1, 1, 1, 0,18,30.00,45.00,Tuesday
7,-1.5499999999999999
8,0.0
9,0.0
10,0.0
11,0.0
12,0.0
13,0.0
14,6.467380943918645
15,-3.2143813793448459
16,4.136741194148044
17,-0.5534287071579911
18,6.803689756432547
2,1, 1, 1, 0,18,45.00,60.00,Tuesday
7,-1.7
8,0.0
9,0.0
10,0.0
11,0.0
12,0.0
13,0.0
14,6.417231794337851
15,-3.3665648614393754
16,4.061043017256111
17,-0.6774130533505058
18,6.754921660202653
2,1, 1, 1, 0,19, 0.00,15.00,Tuesday
7,-1.825
8,0.0
9,0.0
10,0.0
11,0.0
12,0.0
13,0.0
14,6.391769647712993
15,-3.2198498160618449
16,3.9609496008345106
17,-0.8601336118993572
18,6.710744543237293
2,1, 1, 1, 0,19,15.00,30.00,Tuesday
7,-1.9500000000000002
8,0.0
9,0.0
10,0.0
11,0.0
12,0.0
13,0.0
14,6.365074255931815
15,-3.154426055611741
16,3.87759130627137
17,-1.0291124081646786
18,6.672908565161728
2,1, 1, 1, 0,19,30.00,45.00,Tuesday
7,-2.075
8,0.0
9,0.0
10,0.0
11,0.0
12,0.0
13,0.0
14,6.333883959304343
15,-3.228635949203793
16,3.8185701823803699
17,-1.1481473616732956
18,6.640236424538765
2,1, 1, 1, 0,19,45.00,60.00,Tuesday
7,-2.2
8,0.0
9,0.0
10,0.0
11,0.0
12,0.0
13,0.0
14,6.3053402582220399
15,-3.207583305604547
16,3.7391315946391048
17,-1.309540324259899
18,6.60966643563263
2,1, 1, 1, 0,20, 0.00,15.00,Tuesday
7,-1.9250000000000003
8,0.0
9,0.0
10,0.0
11,0.0
12,0.0
13,0.0
14,6.293238063463248
15,-2.9067316486793186
16,3.8029959316787087
17,-1.1353918926980669
18,6.5822455329389168
2,1, 1, 1, 0,20,15.00,30.00,Tuesday
7,-1.6500000000000002
8,0.0
9,0.0
10,0.0
11,0.0
12,0.0
13,0.0
14,6.281655555441661
15,-2.6088215280690969
16,3.853063083694451
17,-0.9310708085356509
18,6.55855262167364
2,1, 1, 1, 0,20,30.00,45.00,Tuesday
7,-1.375
8,0.0
9,0.0
10,0.0
11,0.0
12,0.0
13,0.0
14,6.272113866410774
15,-2.3121852595361678
16,3.9092596469547518
17,-0.7318438231261553
18,6.538103490024482
2,1, 1, 1, 0,20,45.00,60.00,Tuesday
7,-1.1
8,0.0
9,0.0
10,0.0
11,0.0
12,0.0
13,0.0
14,6.265275450960378
15,-2.0167987829273308
16,3.968172529313449
17,-0.5300949370983403
18,6.5201854487813499
2,1, 1, 1, 0,21, 0.00,15.00,Tuesday
7,-1.25
8,0.0
9,0.0
10,0.0
11,0.0
12,0.0
13,0.0
14,6.2152892397975709
15,-2.2968562100189926
16,3.9321961210267775
17,-0.5789217711727019
18,6.497737580765512
2,1, 1, 1, 0,21,15.00,30.00,Tuesday
7,-1.4
8,0.0
9,0.0
10,0.0
11,0.0
12,0.0
13,0.0
14,6.167066535442649
15,-2.512791656212149
16,3.8773124255275208
17,-0.6596049776582049
18,6.465870220994535
2,1, 1, 1, 0,21,30.00,45.00,Tuesday
7,-1.5499999999999999
8,0.0
9,0.0
10,0.0
11,0.0
12,0.0
13,0.0
14,6.105566547058671
15,-2.8556472828922918
16,3.838666009587996
17,-0.6979978746580855
18,6.423915761107239
2,1, 1, 1, 0,21,45.00,60.00,Tuesday
7,-1.7
8,0.0
9,0.0
10,0.0
11,0.0
12,0.0
13,0.0
14,6.038881266562634
15,-3.305865433333972
16,3.8036586290658649
17,-0.7076791008256578
18,6.374310662401985
2,1, 1, 1, 0,22, 0.00,15.00,Tuesday
7,-1.5499999999999999
8,0.0
9,0.0
10,0.0
11,0.0
12,0.0
13,0.0
14,6.0404424536045
15,-2.820356673832054
16,3.7639761112817498
17,-0.7181652219144894
18,6.3301870426117239
2,1, 1, 1, 0,22,15.00,30.00,Tuesday
7,-1.4
8,0.0
9,0.0
10,0.0
11,0.0
12,0.0
13,0.0
14,6.03198499372704
15,-2.4916815836860555
16,3.7653686734183795
17,-0.6935823554620697
18,6.2987339106090129
2,1, 1, 1, 0,22,30.00,45.00,Tuesday
7,-1.25
8,0.0
9,0.0
10,0.0
11,0.0
12,0.0
13,0.0
14,6.022350757328483
15,-2.272250669530594
16,3.779270213980226
17,-0.6143689268714638
18,6.277823612745286
2,1, 1, 1, 0,22,45.00,60.00,Tuesday
7,-1.1
8,0.0
9,0.0
10,0.0
11,0.0
12,0.0
13,0.0
14,6.016550929839923
15,-1.990871618874467
16,3.787564631176565
17,-0.5576525106082499
18,6.262220949549182
2,1, 1, 1, 0,23, 0.00,15.00,Tuesday
7,-1.25
8,0.0
9,0.0
10,0.0
11,0.0
12,0.0
13,0.0
14,5.965509414499826
15,-2.294294571848155
16,3.674289978468096
17,-0.8180245561693482
18,6.241157927626425
2,1, 1, 1, 0,23,15.00,30.00,Tuesday
7,-1.4
8,0.0
9,0.0
10,0.0
11,0.0
12,0.0
13,0.0
14,5.917579408143648
15,-2.5989274678806417
16,3.5513910110481676
17,-1.0931542164944972
18,6.209494565581447
2,1, 1, 1, 0,23,30.00,45.00,Tuesday
7,-1.5499999999999999
8,0.0
9,0.0
10,0.0
11,0.0
12,0.0
13,0.0
14,5.864776731255232
15,-2.904246647751215
16,3.42687077502228
17,-1.3696864118657573
18,6.168527578474843
2,1, 1, 1, 0,23,45.00,60.00,Tuesday
7,-1.7
8,0.0
9,0.0
10,0.0
11,0.0
12,0.0
13,0.0
14,5.807980996733814
15,-3.2099062604643295
16,3.2984013477119449
17,-1.648156886404081
18,6.1213777203156269
2,1, 1, 1, 0,24, 0.00,15.00,Tuesday
7,-1.7
8,0.0
9,0.0
10,0.0
11,0.0
12,0.0
13,0.0
14,5.767567900538556
15,-3.264000425098017
16,3.2456535818130307
17,-1.7146478488299977
18,6.073939462986961
2,1, 1, 1, 0,24,15.00,30.00,Tuesday
7,-1.7
8,0.0
9,0.0
10,0.0
11,0.0
12,0.0
13,0.0
14,5.725053291844941
15,-3.3187122722819035
16,3.196401873364948
17,-1.7767897519273675
18,6.029280310508614
2,1, 1, 1, 0,24,30.00,45.00,Tuesday
7,-1.7
8,0.0
9,0.0
10,0.0
11,0.0
12,0.0
13,0.0
14,5.683696277863013
15,-3.373312436863797
16,3.1471210091315244
17,-1.838352497521214
18,5.987325530182001
2,1, 1, 1, 0,24,45.00,60.00,Tuesday
7,-1.7
8,0.0
9,0.0
10,0.0
11,0.0
12,0.0
13,0.0
14,5.643207014368965
15,-3.427915011534339
16,3.0987665677668589
17,-1.8994199261036329
18,5.946969289319151
End of Data
 Number of Records Written=        1152
