Program Version,EnergyPlus, Version 9.5.0-de239b2e5f, YMD=2023.02.16 21:09
1,5,Environment Title[],Latitude[deg],Longitude[deg],Time Zone[],Elevation[m]
2,8,Day of Simulation[],Month[],Day of Month[],DST Indicator[1=yes 0=no],Hour[],StartMinute[],EndMinute[],DayType
3,5,Cumulative Day of Simulation[],Month[],Day of Month[],DST Indicator[1=yes 0=no],DayType  ! When Daily Report Variables Requested
4,2,Cumulative Days of Simulation[],Month[]  ! When Monthly Report Variables Requested
5,1,Cumulative Days of Simulation[] ! When Run Period Report Variables Requested
6,1,Calendar Year of Simulation[] ! When Annual Report Variables Requested
7,1,Environment,Site Outdoor Air Drybulb Temperature [C] !TimeStep
8,1,ZONE ONE,Zone Windows Total Transmitted Solar Radiation Rate [W] !TimeStep
9,1,ZN001:WALL001,Surface Outside Face Sunlit Fraction [] !TimeStep
10,1,ZN001:WALL001,Surface Outside Face Incident Solar Radiation Rate per Area [W/m2] !TimeStep
11,1,ZN001:WALL001:WIN001,Surface Outside Face Sunlit Fraction [] !TimeStep
12,1,ZN001:WALL001:WIN001,Surface Outside Face Incident Solar Radiation Rate per Area [W/m2] !TimeStep
13,1,ZN001:WALL001:WIN001,Surface Window Transmitted Solar Radiation Rate [W] !TimeStep
14,1,ZN001:WALL001,Surface Inside Face Temperature [C] !TimeStep
15,1,ZN001:WALL001,Surface Outside Face Temperature [C] !TimeStep
16,1,ZN001:WALL001:WIN001,Surface Inside Face Temperature [C] !TimeStep
17,1,ZN001:WALL001:WIN001,Surface Outside Face Temperature [C] !TimeStep
18,1,ZONE ONE,Zone Mean Air Temperature [C] !TimeStep
End of Data Dictionary
1,RUN PERIOD 1,  41.98, -87.92,  -6.00, 201.00
2,1, 1, 1, 0, 1, 0.00,15.00,Tuesday
7,-4.324999999999999
8,0.0
9,0.0
10,0.0
11,0.0
12,0.0
13,0.0
14,7.499917824041934
15,-5.86741428944774
16,4.260042223652135
17,-3.6181573267027149
18,7.989110967379415
2,1, 1, 1, 0, 1,15.00,30.00,Tuesday
7,-6.949999999999999
8,0.0
9,0.0
10,0.0
11,0.0
12,0.0
13,0.0
14,7.311260321617858
15,-8.33462074963074
16,3.5536264394085608
17,-5.62453127300347
18,7.880552042871205
2,1, 1, 1, 0, 1,30.00,45.00,Tuesday
7,-9.575
8,0.0
9,0.0
10,0.0
11,0.0
12,0.0
13,0.0
14,7.101330763379629
15,-10.809821782232323
16,2.8401411470385939
17,-7.636848639990603
18,7.739037931256077
2,1, 1, 1, 0, 1,45.00,60.00,Tuesday
7,-12.2
8,0.0
9,0.0
10,0.0
11,0.0
12,0.0
13,0.0
14,6.874775361764369
15,-13.291663996704882
16,2.1114666775649768
17,-9.656953385538714
18,7.575060182366801
2,1, 1, 1, 0, 2, 0.00,15.00,Tuesday
7,-12.075
8,0.0
9,0.0
10,0.0
11,0.0
12,0.0
13,0.0
14,6.796879527358681
15,-13.092511106265807
16,2.0544438236722728
17,-9.50533378571754
18,7.428002224447005
2,1, 1, 1, 0, 2,15.00,30.00,Tuesday
7,-11.95
8,0.0
9,0.0
10,0.0
11,0.0
12,0.0
13,0.0
14,6.706090617860853
15,-12.915611792253668
16,2.0230375005594398
17,-9.373612690534799
18,7.314983225983877
2,1, 1, 1, 0, 2,30.00,45.00,Tuesday
7,-11.825
8,0.0
9,0.0
10,0.0
11,0.0
12,0.0
13,0.0
14,6.633545767680798
15,-12.737530402604112
16,2.002641466791829
17,-9.251196714419053
18,7.229668112820589
2,1, 1, 1, 0, 2,45.00,60.00,Tuesday
7,-11.7
8,0.0
9,0.0
10,0.0
11,0.0
12,0.0
13,0.0
14,6.572532329831225
15,-12.559535935819813
16,1.9868724633678312
17,-9.105169842642625
18,7.16005014752289
2,1, 1, 1, 0, 3, 0.00,15.00,Tuesday
7,-11.549999999999999
8,0.0
9,0.0
10,0.0
11,0.0
12,0.0
13,0.0
14,6.513546484831504
15,-12.432593886964656
16,1.9907434872657178
17,-8.965302228821543
18,7.096979853722305
2,1, 1, 1, 0, 3,15.00,30.00,Tuesday
7,-11.399999999999999
8,0.0
9,0.0
10,0.0
11,0.0
12,0.0
13,0.0
14,6.457622811643718
15,-12.306980912884257
16,1.98829261466949
17,-8.804862613523256
18,7.035999886998316
2,1, 1, 1, 0, 3,30.00,45.00,Tuesday
7,-11.25
8,0.0
9,0.0
10,0.0
11,0.0
12,0.0
13,0.0
14,6.402675859703828
15,-12.182849445048657
16,1.9955940070113912
17,-8.663877582978671
18,6.97601815529416
2,1, 1, 1, 0, 3,45.00,60.00,Tuesday
7,-11.1
8,0.0
9,0.0
10,0.0
11,0.0
12,0.0
13,0.0
14,6.348170949374146
15,-12.060246554468094
16,1.9953907474878748
17,-8.50366363396688
18,6.916855113886199
2,1, 1, 1, 0, 4, 0.00,15.00,Tuesday
7,-11.1
8,0.0
9,0.0
10,0.0
11,0.0
12,0.0
13,0.0
14,6.289736796168552
15,-12.033189091874148
16,1.9312219290636677
17,-8.556482456240702
18,6.857363645160765
2,1, 1, 1, 0, 4,15.00,30.00,Tuesday
7,-11.1
8,0.0
9,0.0
10,0.0
11,0.0
12,0.0
13,0.0
14,6.2316503945611709
15,-12.007176183229597
16,1.871855529262291
17,-8.608033093369386
18,6.79714300141425
2,1, 1, 1, 0, 4,30.00,45.00,Tuesday
7,-11.1
8,0.0
9,0.0
10,0.0
11,0.0
12,0.0
13,0.0
14,6.173267388690358
15,-11.982634382433665
16,1.812981505562277
17,-8.658567676602559
18,6.736412932820703
2,1, 1, 1, 0, 4,45.00,60.00,Tuesday
7,-11.1
8,0.0
9,0.0
10,0.0
11,0.0
12,0.0
13,0.0
14,6.114748010908329
15,-11.959432375780754
16,1.754366884862975
17,-8.707891379315698
18,6.675504335938931
2,1, 1, 1, 0, 5, 0.00,15.00,Tuesday
7,-10.975
8,0.0
9,0.0
10,0.0
11,0.0
12,0.0
13,0.0
14,6.061974709354739
15,-11.837647590084272
16,1.743959674818143
17,-8.629575545524517
18,6.615882006622007
2,1, 1, 1, 0, 5,15.00,30.00,Tuesday
7,-10.85
8,0.0
9,0.0
10,0.0
11,0.0
12,0.0
13,0.0
14,6.0094851509734339
15,-11.715919532130192
16,1.730400976422061
17,-8.543134702972168
18,6.558091407070514
2,1, 1, 1, 0, 5,30.00,45.00,Tuesday
7,-10.725
8,0.0
9,0.0
10,0.0
11,0.0
12,0.0
13,0.0
14,5.958152240676129
15,-11.594165687831535
16,1.7170362027502507
17,-8.455665642349573
18,6.50184010343681
2,1, 1, 1, 0, 5,45.00,60.00,Tuesday
7,-10.6
8,0.0
9,0.0
10,0.0
11,0.0
12,0.0
13,0.0
14,5.907768466505255
15,-11.472420601116307
16,1.7045136030488948
17,-8.367869119717114
18,6.446679034765211
2,1, 1, 1, 0, 6, 0.00,15.00,Tuesday
7,-10.6
8,0.0
9,0.0
10,0.0
11,0.0
12,0.0
13,0.0
14,5.850484908687982
15,-11.47352707628044
16,1.6575099571930992
17,-8.372783480898477
18,6.390872177981695
2,1, 1, 1, 0, 6,15.00,30.00,Tuesday
7,-10.6
8,0.0
9,0.0
10,0.0
11,0.0
12,0.0
13,0.0
14,5.793852176584825
15,-11.474589875361814
16,1.6121460320169377
17,-8.38384049730837
18,6.333689803979775
2,1, 1, 1, 0, 6,30.00,45.00,Tuesday
7,-10.6
8,0.0
9,0.0
10,0.0
11,0.0
12,0.0
13,0.0
14,5.736672021190704
15,-11.47569525310074
16,1.5670440587031749
17,-8.395519200904346
18,6.275457063557396
2,1, 1, 1, 0, 6,45.00,60.00,Tuesday
7,-10.6
8,0.0
9,0.0
10,0.0
11,0.0
12,0.0
13,0.0
14,5.679194027924706
15,-11.47679758009603
16,1.5216096684401919
17,-8.407377311185428
18,6.216729706672353
2,1, 1, 1, 0, 7, 0.00,15.00,Tuesday
7,-10.6
8,0.0
9,0.0
10,0.0
11,0.0
12,0.0
13,0.0
14,5.623578523081743
15,-11.454395439034086
16,1.4642476211382132
17,-8.450162283391933
18,6.158106190681982
2,1, 1, 1, 0, 7,15.00,30.00,Tuesday
7,-10.6
8,0.0
9,0.0
10,0.0
11,0.0
12,0.0
13,0.0
14,5.567858575629228
15,-11.433157554546576
16,1.4093375469998364
17,-8.493415497296383
18,6.099911584726278
2,1, 1, 1, 0, 7,30.00,45.00,Tuesday
7,-10.6
8,0.0
9,0.0
10,0.0
11,0.0
12,0.0
13,0.0
14,5.512418686314152
15,-11.413002708295652
16,1.3550724079165094
17,-8.535712940069402
18,6.042151331779724
2,1, 1, 1, 0, 7,45.00,60.00,Tuesday
7,-10.6
8,0.0
9,0.0
10,0.0
11,0.0
12,0.0
13,0.0
14,5.4572745449445458
15,-11.393866004061481
16,1.3014288026607233
17,-8.576830246848545
18,5.984741480365532
2,1, 1, 1, 0, 8, 0.00,15.00,Tuesday
7,-10.45
8,0.0
9,0.0
10,0.0
11,0.0
12,0.0
13,0.0
14,5.401830398806845
15,-11.344176342144664
16,1.2854064031936333
17,-8.519948140477311
18,5.92758037815814
2,1, 1, 1, 0, 8,15.00,30.00,Tuesday
7,-10.3
8,198.49303475921466
9,1.0
10,22.819555959623899
11,1.0
12,22.819555959623899
13,198.49303475921466
14,5.4751445622566419
15,-9.670194465838478
16,1.56852706434654
17,-8.19295768212561
18,5.89074987913767
2,1, 1, 1, 0, 8,30.00,45.00,Tuesday
7,-10.15
8,974.6027902410967
9,1.0
10,109.75755355442667
11,1.0
12,109.75755355442667
13,974.6027902410967
14,5.901180031307906
15,-3.2954678508114925
16,2.7635651836527019
17,-7.120139226329002
18,5.930427655378748
2,1, 1, 1, 0, 8,45.00,60.00,Tuesday
7,-10.0
8,1772.2105473427887
9,1.0
10,195.8764694434918
11,1.0
12,195.8764694434918
13,1772.2105473427887
14,6.453832461753657
15,3.1890170840297085
16,4.061049616763057
17,-6.031101829804811
18,6.053829892848145
2,1, 1, 1, 0, 9, 0.00,15.00,Tuesday
7,-9.725
8,2567.07103636241
9,1.0
10,278.97248314719988
11,1.0
12,278.97248314719988
13,2567.07103636241
14,6.901444448579538
15,8.357926030088626
16,5.359362991779562
17,-5.071549471257299
18,6.236607044210812
2,1, 1, 1, 0, 9,15.00,30.00,Tuesday
7,-9.45
8,3404.945077593323
9,1.0
10,364.91995730569456
11,1.0
12,364.91995730569456
13,3404.945077593323
14,7.3753453375898589
15,13.436194054065974
16,6.7934937024542709
17,-4.082104096940611
18,6.46861928269563
2,1, 1, 1, 0, 9,30.00,45.00,Tuesday
7,-9.175
8,3959.279359646866
9,1.0
10,420.35879993239237
11,1.0
12,420.35879993239237
13,3959.279359646866
14,7.720742794951532
15,16.192876373348168
16,7.733101856300891
17,-3.467933403761265
18,6.726453843685525
2,1, 1, 1, 0, 9,45.00,60.00,Tuesday
7,-8.9
8,4534.723640710659
9,1.0
10,478.00138373643099
11,1.0
12,478.00138373643099
13,4534.723640710659
14,8.122004709878372
15,19.187334354643654
16,8.66208896419107
17,-2.8400188554773537
18,6.998885194084382
2,1, 1, 1, 0,10, 0.00,15.00,Tuesday
7,-8.350000000000002
8,5122.325436329882
9,1.0
10,536.9185644770597
11,1.0
12,536.9185644770597
13,5122.325436329882
14,8.472815918175242
15,20.302235048932034
16,9.611921149726243
17,-2.198895178586554
18,7.286375419665726
2,1, 1, 1, 0,10,15.00,30.00,Tuesday
7,-7.800000000000001
8,5730.227109160092
9,1.0
10,598.0969199229219
11,1.0
12,598.0969199229219
13,5730.227109160092
14,8.854951005006475
15,21.55321947865039
16,10.57721769597265
17,-1.554425360801531
18,7.421423556440919
2,1, 1, 1, 0,10,30.00,45.00,Tuesday
7,-7.25
8,6129.017662066558
9,1.0
10,637.6133352894237
11,1.0
12,637.6133352894237
13,6129.017662066558
14,9.114626495678865
15,21.609827581173218
16,11.262924289263197
17,-1.1060736126358393
18,7.682538657837477
2,1, 1, 1, 0,10,45.00,60.00,Tuesday
7,-6.7
8,6521.934241945964
9,1.0
10,676.6412284283772
11,1.0
12,676.6412284283772
13,6521.934241945964
14,9.366703790479715
15,21.767359418084174
16,11.893986570353377
17,-0.6634653205584868
18,7.875644427178042
2,1, 1, 1, 0,11, 0.00,15.00,Tuesday
7,-6.275
8,6907.702667445452
9,1.0
10,715.0112779846514
11,1.0
12,715.0112779846514
13,6907.702667445452
14,9.76987075111124
15,23.8668645300387
16,12.612489260610915
17,0.022186400517512085
18,8.323548348301001
2,1, 1, 1, 0,11,15.00,30.00,Tuesday
7,-5.85
8,7284.390582955339
9,1.0
10,752.5077794605232
11,1.0
12,752.5077794605232
13,7284.390582955339
14,10.22431928268466
15,25.80406631550044
16,13.376260854326347
17,0.7007606213708755
18,8.743913240055953
2,1, 1, 1, 0,11,30.00,45.00,Tuesday
7,-5.425
8,7172.439532346116
9,1.0
10,742.5988714321785
11,1.0
12,742.5988714321785
13,7172.439532346116
14,10.502551440093886
15,25.656084799022577
16,13.621884264549408
17,1.0076462836738074
18,9.133633430216566
2,1, 1, 1, 0,11,45.00,60.00,Tuesday
7,-5.0
8,7012.474537249442
9,1.0
10,727.8169025450712
11,1.0
12,727.8169025450712
13,7012.474537249442
14,10.766958664996773
15,25.427833476971274
16,13.771912315704299
17,1.2809844532318949
18,9.477337779622804
2,1, 1, 1, 0,12, 0.00,15.00,Tuesday
7,-4.575
8,6737.383213522377
9,1.0
10,700.3759009170325
11,1.0
12,700.3759009170325
13,6737.383213522377
14,10.956113350827544
15,24.685881132314444
16,13.776573259301472
17,1.4976979536244244
18,9.772792851847216
2,1, 1, 1, 0,12,15.00,30.00,Tuesday
7,-4.15
8,6533.367409871273
9,1.0
10,681.6705029034473
11,1.0
12,681.6705029034473
13,6533.367409871273
14,11.131932701391463
15,24.35524844319655
16,13.835031376672589
17,1.7757697902511609
18,10.031448492512903
2,1, 1, 1, 0,12,30.00,45.00,Tuesday
7,-3.7249999999999998
8,5735.752453838288
9,1.0
10,602.01865277251
11,1.0
12,602.01865277251
13,5735.752453838288
14,11.07902202502858
15,21.32808510791608
16,13.215841513836893
17,1.600192358409629
18,10.22845623763834
2,1, 1, 1, 0,12,45.00,60.00,Tuesday
7,-3.3
8,4684.461078610567
9,1.0
10,493.55004396206007
11,1.0
12,493.55004396206007
13,4684.461078610567
14,10.88364294011419
15,17.150154460772535
16,12.157190393018937
17,1.1767834145180132
18,10.334611872017496
2,1, 1, 1, 0,13, 0.00,15.00,Tuesday
7,-3.0249999999999996
8,3867.9417682351988
9,1.0
10,412.335026418112
11,1.0
12,412.335026418112
13,3867.9417682351988
14,10.750700790248358
15,14.306898018688234
16,11.303067852210802
17,0.8965191730558217
18,10.368048183033976
2,1, 1, 1, 0,13,15.00,30.00,Tuesday
7,-2.75
8,2832.9112038253649
9,1.0
10,305.94037763660148
11,1.0
12,305.94037763660148
13,2832.9112038253649
14,10.4252634355403
15,10.134507484311844
16,10.050741375671806
17,0.3849868110543184
18,10.340457829508564
2,1, 1, 1, 0,13,30.00,45.00,Tuesday
7,-2.475
8,2586.3476478244808
9,1.0
10,281.0763483922329
11,1.0
12,281.0763483922329
13,2586.3476478244808
14,10.401740288810654
15,9.623287914707016
16,9.779636844652487
17,0.5084022647383222
18,10.29322152810017
2,1, 1, 1, 0,13,45.00,60.00,Tuesday
7,-2.2
8,2344.9203514735729
9,1.0
10,256.7721209415886
11,1.0
12,256.7721209415886
13,2344.9203514735729
14,10.362998594872199
15,9.016675265729172
16,9.594671582605202
17,0.658731962523575
18,10.25319422343149
2,1, 1, 1, 0,14, 0.00,15.00,Tuesday
7,-1.9250000000000003
8,1915.5614378460905
9,1.0
10,210.73276284570657
11,1.0
12,210.73276284570657
13,1915.5614378460905
14,10.208285243015116
15,7.470381298985963
16,9.120693146244435
17,0.604855121489436
18,10.215072598925908
2,1, 1, 1, 0,14,15.00,30.00,Tuesday
7,-1.6500000000000002
8,1701.636890462901
9,1.0
10,189.38488290342594
11,1.0
12,189.38488290342594
13,1701.636890462901
14,10.166149805298561
15,7.064387115272892
16,8.919430691425874
17,0.7397215412123614
18,10.179569053789129
2,1, 1, 1, 0,14,30.00,45.00,Tuesday
7,-1.375
8,1622.8800248440066
9,1.0
10,179.3940297802914
11,1.0
12,179.3940297802914
13,1622.8800248440066
14,10.15372679512764
15,7.190901519831162
16,8.895085631281973
17,0.9790362442655578
18,10.148949532518694
2,1, 1, 1, 0,14,45.00,60.00,Tuesday
7,-1.1
8,1543.2234052226525
9,1.0
10,169.43349014176136
11,1.0
12,169.43349014176136
13,1543.2234052226525
14,10.137317282408392
15,7.290984338121216
16,8.86408182637615
17,1.2162051758671738
18,10.12281391466496
2,1, 1, 1, 0,15, 0.00,15.00,Tuesday
7,-1.1
8,1624.3394505603424
9,1.0
10,178.15692317953907
11,1.0
12,178.15692317953907
13,1624.3394505603424
14,10.204603913378663
15,8.111168405683655
16,8.985817476608418
17,1.357359740650395
18,10.105595895265994
2,1, 1, 1, 0,15,15.00,30.00,Tuesday
7,-1.1
8,1526.0223033702039
9,1.0
10,166.40516310952945
11,1.0
12,166.40516310952945
13,1526.0223033702039
14,10.145866376741182
15,7.748164275111821
16,8.866997042738945
17,1.31823970898256
18,10.091337074198333
2,1, 1, 1, 0,15,30.00,45.00,Tuesday
7,-1.1
8,1286.7145871122662
9,1.0
10,140.8967369711617
11,1.0
12,140.8967369711617
13,1286.7145871122662
14,10.017987210829752
15,6.542435623892451
16,8.528266819296733
17,1.124320352752136
18,10.067477465937808
2,1, 1, 1, 0,15,45.00,60.00,Tuesday
7,-1.1
8,1058.8612402206416
9,1.0
10,116.57355796743004
11,1.0
12,116.57355796743004
13,1058.8612402206416
14,9.888250896073896
15,5.335948403055676
16,8.187982130687829
17,0.9234550400177568
18,10.024198034867473
2,1, 1, 1, 0,16, 0.00,15.00,Tuesday
7,-1.1
8,840.3726933531048
9,1.0
10,93.14939272689483
11,1.0
12,93.14939272689483
13,840.3726933531048
14,9.773718597764513
15,4.288673345097009
16,7.88802578388038
17,0.8094964889088487
18,9.961186916782597
2,1, 1, 1, 0,16,15.00,30.00,Tuesday
7,-1.1
8,521.7048907738913
9,1.0
10,57.94047897402063
11,1.0
12,57.94047897402063
13,521.7048907738913
14,9.56258431210999
15,2.167732255613066
16,7.419938968285464
17,0.5566880061812753
18,9.872823701286708
2,1, 1, 1, 0,16,30.00,45.00,Tuesday
7,-1.1
8,404.4917082756416
9,1.0
10,45.38251793443488
11,1.0
12,45.38251793443488
13,404.4917082756416
14,9.478683850997135
15,1.561603554424074
16,7.219719205593719
17,0.5377315436433605
18,9.7735288222257
2,1, 1, 1, 0,16,45.00,60.00,Tuesday
7,-1.1
8,282.362010079345
9,1.0
10,32.02625108222755
11,1.0
12,32.02625108222755
13,282.362010079345
14,9.354180921269484
15,0.7030529914736883
16,7.034699575000104
17,0.5178887858374424
18,9.67590629599325
2,1, 1, 1, 0,17, 0.00,15.00,Tuesday
7,-1.1
8,154.8751670521773
9,1.0
10,17.762198626050539
11,1.0
12,17.762198626050539
13,154.8751670521773
14,9.205307863942075
15,-0.5416606767750912
16,6.792591293256692
17,0.3921316654866587
18,9.578221943350226
2,1, 1, 1, 0,17,15.00,30.00,Tuesday
7,-1.1
8,0.0
9,0.0
10,0.0
11,0.0
12,0.0
13,0.0
14,9.005314328099268
15,-2.3758977128680844
16,6.46332616795064
17,0.1292378117076396
18,9.467126812735304
2,1, 1, 1, 0,17,30.00,45.00,Tuesday
7,-1.1
8,0.0
9,0.0
10,0.0
11,0.0
12,0.0
13,0.0
14,8.943191252359894
15,-2.508632530054522
16,6.391564830855486
17,0.17320341493297065
18,9.358539915207159
2,1, 1, 1, 0,17,45.00,60.00,Tuesday
7,-1.1
8,0.0
9,0.0
10,0.0
11,0.0
12,0.0
13,0.0
14,8.864402766940492
15,-2.6942716973591529
16,6.357205032865181
17,0.23210029807341926
18,9.267009360293973
2,1, 1, 1, 0,18, 0.00,15.00,Tuesday
7,-1.25
8,0.0
9,0.0
10,0.0
11,0.0
12,0.0
13,0.0
14,8.797008984340016
15,-2.8428322104081698
16,6.256822923501886
17,0.09705804723046185
18,9.192675079179696
2,1, 1, 1, 0,18,15.00,30.00,Tuesday
7,-1.4
8,0.0
9,0.0
10,0.0
11,0.0
12,0.0
13,0.0
14,8.735144298559048
15,-2.995338801008427
16,6.171331231369777
17,-0.03236526831778974
18,9.129765095723622
2,1, 1, 1, 0,18,30.00,45.00,Tuesday
7,-1.5499999999999999
8,0.0
9,0.0
10,0.0
11,0.0
12,0.0
13,0.0
14,8.67739412350857
15,-3.1474709143302106
16,6.090482968350727
17,-0.1608213498071791
18,9.072757367383547
2,1, 1, 1, 0,18,45.00,60.00,Tuesday
7,-1.7
8,0.0
9,0.0
10,0.0
11,0.0
12,0.0
13,0.0
14,8.621483347393518
15,-3.2997733357113474
16,6.012358192901274
17,-0.2885342681970542
18,9.018369255538941
2,1, 1, 1, 0,19, 0.00,15.00,Tuesday
7,-1.825
8,0.0
9,0.0
10,0.0
11,0.0
12,0.0
13,0.0
14,8.589171482300867
15,-3.1608630883620476
16,5.9041145203303249
17,-0.4980648551837703
18,8.968302398764666
2,1, 1, 1, 0,19,15.00,30.00,Tuesday
7,-1.9500000000000002
8,0.0
9,0.0
10,0.0
11,0.0
12,0.0
13,0.0
14,8.555414369364265
15,-3.1022795781275036
16,5.813010243988856
17,-0.6933927213894435
18,8.924323786269989
2,1, 1, 1, 0,19,30.00,45.00,Tuesday
7,-2.075
8,0.0
9,0.0
10,0.0
11,0.0
12,0.0
13,0.0
14,8.517573749635407
15,-3.1783551571120429
16,5.750301393015661
17,-0.8220297728475998
18,8.885317022757372
2,1, 1, 1, 0,19,45.00,60.00,Tuesday
7,-2.2
8,0.0
9,0.0
10,0.0
11,0.0
12,0.0
13,0.0
14,8.481206430882394
15,-3.1632862876052116
16,5.662954987021749
17,-1.0073605178837398
18,8.84808270577416
2,1, 1, 1, 0,20, 0.00,15.00,Tuesday
7,-1.9250000000000003
8,0.0
9,0.0
10,0.0
11,0.0
12,0.0
13,0.0
14,8.463000711787905
15,-2.8638757356172728
16,5.712974809330433
17,-0.8348898744773692
18,8.813911723731442
2,1, 1, 1, 0,20,15.00,30.00,Tuesday
7,-1.6500000000000002
8,0.0
9,0.0
10,0.0
11,0.0
12,0.0
13,0.0
14,8.444118061732132
15,-2.5673530037086089
16,5.749553429802177
17,-0.6314962851536734
18,8.783460145393477
2,1, 1, 1, 0,20,30.00,45.00,Tuesday
7,-1.375
8,0.0
9,0.0
10,0.0
11,0.0
12,0.0
13,0.0
14,8.427393858313588
15,-2.271985040160924
16,5.791810209988853
17,-0.43386404805050918
18,8.756188894984917
2,1, 1, 1, 0,20,45.00,60.00,Tuesday
7,-1.1
8,0.0
9,0.0
10,0.0
11,0.0
12,0.0
13,0.0
14,8.412396855954674
15,-1.9778088209998055
16,5.836739380755091
17,-0.23366541109817264
18,8.73124688839702
2,1, 1, 1, 0,21, 0.00,15.00,Tuesday
7,-1.25
8,0.0
9,0.0
10,0.0
11,0.0
12,0.0
13,0.0
14,8.358053091024996
15,-2.2517215059397626
16,5.805374022694764
17,-0.26199552809089257
18,8.701812693071153
2,1, 1, 1, 0,21,15.00,30.00,Tuesday
7,-1.4
8,0.0
9,0.0
10,0.0
11,0.0
12,0.0
13,0.0
14,8.304443076848257
15,-2.4644448539801768
16,5.750665323624844
17,-0.33281393004006079
18,8.663173876639299
2,1, 1, 1, 0,21,30.00,45.00,Tuesday
7,-1.5499999999999999
8,0.0
9,0.0
10,0.0
11,0.0
12,0.0
13,0.0
14,8.238142116555603
15,-2.7991522765898395
16,5.716027291873047
17,-0.3457928356051525
18,8.61481469421186
2,1, 1, 1, 0,21,45.00,60.00,Tuesday
7,-1.7
8,0.0
9,0.0
10,0.0
11,0.0
12,0.0
13,0.0
14,8.166707381452222
15,-3.239960995580105
16,5.687198292697246
17,-0.33583774912938227
18,8.55930380169761
2,1, 1, 1, 0,22, 0.00,15.00,Tuesday
7,-1.5499999999999999
8,0.0
9,0.0
10,0.0
11,0.0
12,0.0
13,0.0
14,8.159777543603465
15,-2.7654945558704444
16,5.627983299553591
17,-0.3656214581064319
18,8.509266727753511
2,1, 1, 1, 0,22,15.00,30.00,Tuesday
7,-1.4
8,0.0
9,0.0
10,0.0
11,0.0
12,0.0
13,0.0
14,8.143425273065012
15,-2.4442460495252016
16,5.6112376283357439
17,-0.3646639275393113
18,8.47164894061876
2,1, 1, 1, 0,22,30.00,45.00,Tuesday
7,-1.25
8,0.0
9,0.0
10,0.0
11,0.0
12,0.0
13,0.0
14,8.126508787149712
15,-2.2281628199503165
16,5.61514793296044
17,-0.29873828596441856
18,8.444262346277072
2,1, 1, 1, 0,22,45.00,60.00,Tuesday
7,-1.1
8,0.0
9,0.0
10,0.0
11,0.0
12,0.0
13,0.0
14,8.113346315278662
15,-1.9527739352392724
16,5.611052710417198
17,-0.2734534129833719
18,8.421903934538714
2,1, 1, 1, 0,23, 0.00,15.00,Tuesday
7,-1.25
8,0.0
9,0.0
10,0.0
11,0.0
12,0.0
13,0.0
14,8.057710238934796
15,-2.2560730370467709
16,5.499148042962133
17,-0.5339661252035057
18,8.393962788036449
2,1, 1, 1, 0,23,15.00,30.00,Tuesday
7,-1.4
8,0.0
9,0.0
10,0.0
11,0.0
12,0.0
13,0.0
14,8.004296148434799
15,-2.560798182024835
16,5.379787654686538
17,-0.8133543740195819
18,8.355543868297861
2,1, 1, 1, 0,23,30.00,45.00,Tuesday
7,-1.5499999999999999
8,0.0
9,0.0
10,0.0
11,0.0
12,0.0
13,0.0
14,7.94595905844526
15,-2.866173224406494
16,5.258624765685909
17,-1.0942282563116237
18,8.30810886202485
2,1, 1, 1, 0,23,45.00,60.00,Tuesday
7,-1.7
8,0.0
9,0.0
10,0.0
11,0.0
12,0.0
13,0.0
14,7.883661438734131
15,-3.171892124051943
16,5.133440908161333
17,-1.3768888822136774
18,8.254819945403498
2,1, 1, 1, 0,24, 0.00,15.00,Tuesday
7,-1.7
8,0.0
9,0.0
10,0.0
11,0.0
12,0.0
13,0.0
14,7.837224960783435
15,-3.226149368488685
16,5.076976573946467
17,-1.4430291928264297
18,8.201499338202778
2,1, 1, 1, 0,24,15.00,30.00,Tuesday
7,-1.7
8,0.0
9,0.0
10,0.0
11,0.0
12,0.0
13,0.0
14,7.788793779396105
15,-3.280960651726045
16,5.023898861020143
17,-1.505763437703763
18,8.151078053448624
2,1, 1, 1, 0,24,30.00,45.00,Tuesday
7,-1.7
8,0.0
9,0.0
10,0.0
11,0.0
12,0.0
13,0.0
14,7.741611552093785
15,-3.335662039132487
16,4.970677960071896
17,-1.5685550014442243
18,8.103362307833019
2,1, 1, 1, 0,24,45.00,60.00,Tuesday
7,-1.7
8,0.0
9,0.0
10,0.0
11,0.0
12,0.0
13,0.0
14,7.695328280988717
15,-3.390367538355708
16,4.918348431975005
17,-1.6312368745211643
18,8.057193780273787
End of Data
 Number of Records Written=        1152
