Program Version,EnergyPlus, Version 9.5.0-de239b2e5f, YMD=2023.02.16 21:08
1,5,Environment Title[],Latitude[deg],Longitude[deg],Time Zone[],Elevation[m]
2,8,Day of Simulation[],Month[],Day of Month[],DST Indicator[1=yes 0=no],Hour[],StartMinute[],EndMinute[],DayType
3,5,Cumulative Day of Simulation[],Month[],Day of Month[],DST Indicator[1=yes 0=no],DayType  ! When Daily Report Variables Requested
4,2,Cumulative Days of Simulation[],Month[]  ! When Monthly Report Variables Requested
5,1,Cumulative Days of Simulation[] ! When Run Period Report Variables Requested
6,1,Calendar Year of Simulation[] ! When Annual Report Variables Requested
7,1,Environment,Site Outdoor Air Drybulb Temperature [C] !TimeStep
8,1,ZONE ONE,Zone Windows Total Transmitted Solar Radiation Rate [W] !TimeStep
9,1,ZN001:WALL001,Surface Outside Face Sunlit Fraction [] !TimeStep
10,1,ZN001:WALL001,Surface Outside Face Incident Solar Radiation Rate per Area [W/m2] !TimeStep
11,1,ZN001:WALL001:WIN001,Surface Outside Face Sunlit Fraction [] !TimeStep
12,1,ZN001:WALL001:WIN001,Surface Outside Face Incident Solar Radiation Rate per Area [W/m2] !TimeStep
13,1,ZN001:WALL001:WIN001,Surface Window Transmitted Solar Radiation Rate [W] !TimeStep
14,1,ZN001:WALL001,Surface Inside Face Temperature [C] !TimeStep
15,1,ZN001:WALL001,Surface Outside Face Temperature [C] !TimeStep
16,1,ZN001:WALL001:WIN001,Surface Inside Face Temperature [C] !TimeStep
17,1,ZN001:WALL001:WIN001,Surface Outside Face Temperature [C] !TimeStep
18,1,ZONE ONE,Zone Mean Air Temperature [C] !TimeStep
End of Data Dictionary
1,RUN PERIOD 1,  41.98, -87.92,  -6.00, 201.00
2,1, 1, 1, 0, 1, 0.00,15.00,Tuesday
7,-4.324999999999999
8,0.0
9,0.0
10,0.0
11,0.0
12,0.0
13,0.0
14,3.707583128045165
15,-5.936402723591647
16,2.026896262113837
17,-4.949545621292884
18,4.115201346154304
2,1, 1, 1, 0, 1,15.00,30.00,Tuesday
7,-6.949999999999999
8,0.0
9,0.0
10,0.0
11,0.0
12,0.0
13,0.0
14,3.530911700626896
15,-8.404118075248379
16,1.472545255585942
17,-7.080806010637843
18,4.026641506775666
2,1, 1, 1, 0, 1,30.00,45.00,Tuesday
7,-9.575
8,0.0
9,0.0
10,0.0
11,0.0
12,0.0
13,0.0
14,3.334935551341699
15,-10.87993031648822
16,0.9141271650798899
17,-9.218822945301895
18,3.906488714682902
2,1, 1, 1, 0, 1,45.00,60.00,Tuesday
7,-12.2
8,0.0
9,0.0
10,0.0
11,0.0
12,0.0
13,0.0
14,3.1235632123748577
15,-13.362326385189516
16,0.34149970768083906
17,-11.364731511396258
18,3.763963854549793
2,1, 1, 1, 0, 2, 0.00,15.00,Tuesday
7,-12.075
8,0.0
9,0.0
10,0.0
11,0.0
12,0.0
13,0.0
14,3.0637714700685017
15,-13.163598947776962
16,0.26846117277921169
17,-11.209364300655125
18,3.634938508513233
2,1, 1, 1, 0, 2,15.00,30.00,Tuesday
7,-11.95
8,0.0
9,0.0
10,0.0
11,0.0
12,0.0
13,0.0
14,2.9897304955447385
15,-12.986374056684701
16,0.23684376911995742
17,-11.056982019993314
18,3.536608981125597
2,1, 1, 1, 0, 2,30.00,45.00,Tuesday
7,-11.825
8,0.0
9,0.0
10,0.0
11,0.0
12,0.0
13,0.0
14,2.93226412670813
15,-12.807987150409736
16,0.21006050323018145
17,-10.904354981142433
18,3.464422013982678
2,1, 1, 1, 0, 2,45.00,60.00,Tuesday
7,-11.7
8,0.0
9,0.0
10,0.0
11,0.0
12,0.0
13,0.0
14,2.8858181725699358
15,-12.629668751127995
16,0.19581150600140519
17,-10.749474192001685
18,3.4079505051401646
2,1, 1, 1, 0, 3, 0.00,15.00,Tuesday
7,-11.549999999999999
8,0.0
9,0.0
10,0.0
11,0.0
12,0.0
13,0.0
14,2.840940830834749
15,-12.504345375582688
16,0.18915508139315308
17,-10.616692292001858
18,3.3584424024373309
2,1, 1, 1, 0, 3,15.00,30.00,Tuesday
7,-11.399999999999999
8,0.0
9,0.0
10,0.0
11,0.0
12,0.0
13,0.0
14,2.7993365805485279
15,-12.3804208793053
16,0.1818232424039934
17,-10.475475646735277
18,3.3113902922118729
2,1, 1, 1, 0, 3,30.00,45.00,Tuesday
7,-11.25
8,0.0
9,0.0
10,0.0
11,0.0
12,0.0
13,0.0
14,2.7586549278538889
15,-12.258060385925884
16,0.17598412375116369
17,-10.333514330069989
18,3.2653797231105208
2,1, 1, 1, 0, 3,45.00,60.00,Tuesday
7,-11.1
8,0.0
9,0.0
10,0.0
11,0.0
12,0.0
13,0.0
14,2.7184675611696065
15,-12.137323283305996
16,0.17076616048427696
17,-10.19171086858114
18,3.220179605134452
2,1, 1, 1, 0, 4, 0.00,15.00,Tuesday
7,-11.1
8,0.0
9,0.0
10,0.0
11,0.0
12,0.0
13,0.0
14,2.6747080277514776
15,-12.107774221590594
16,0.12414018249518222
17,-10.20734981118676
18,3.175031060129539
2,1, 1, 1, 0, 4,15.00,30.00,Tuesday
7,-11.1
8,0.0
9,0.0
10,0.0
11,0.0
12,0.0
13,0.0
14,2.631363872641725
15,-12.079365484055395
16,0.08223536783941654
17,-10.229977783153118
18,3.129630914242617
2,1, 1, 1, 0, 4,30.00,45.00,Tuesday
7,-11.1
8,0.0
9,0.0
10,0.0
11,0.0
12,0.0
13,0.0
14,2.5879027261682019
15,-12.052541958359134
16,0.0409459983349052
17,-10.252466763823236
18,3.0840506562889109
2,1, 1, 1, 0, 4,45.00,60.00,Tuesday
7,-11.1
8,0.0
9,0.0
10,0.0
11,0.0
12,0.0
13,0.0
14,2.544403267671735
15,-12.027172250905924
16,-0.0001727539104194875
17,-10.274254431784016
18,3.038441117604031
2,1, 1, 1, 0, 5, 0.00,15.00,Tuesday
7,-10.975
8,0.0
9,0.0
10,0.0
11,0.0
12,0.0
13,0.0
14,2.506501088504608
15,-11.90504739203335
16,-0.010756179718157455
17,-10.183296917651774
18,2.993853231248048
2,1, 1, 1, 0, 5,15.00,30.00,Tuesday
7,-10.85
8,0.0
9,0.0
10,0.0
11,0.0
12,0.0
13,0.0
14,2.468778109606693
15,-11.783008177079403
16,-0.022763300934002474
17,-10.084506867991252
18,2.9507363622480917
2,1, 1, 1, 0, 5,30.00,45.00,Tuesday
7,-10.725
8,0.0
9,0.0
10,0.0
11,0.0
12,0.0
13,0.0
14,2.4319986989735566
15,-11.660948578500582
16,-0.03445493770078656
17,-9.98496049805567
18,2.9089020091638955
2,1, 1, 1, 0, 5,45.00,60.00,Tuesday
7,-10.6
8,0.0
9,0.0
10,0.0
11,0.0
12,0.0
13,0.0
14,2.3960156557308496
15,-11.538898994712494
16,-0.045385474840486498
17,-9.88522303814159
18,2.8680134117216284
2,1, 1, 1, 0, 6, 0.00,15.00,Tuesday
7,-10.6
8,0.0
9,0.0
10,0.0
11,0.0
12,0.0
13,0.0
14,2.3529256847199826
15,-11.53976329846458
16,-0.08025677919943064
17,-9.88733243048415
18,2.826635417761246
2,1, 1, 1, 0, 6,15.00,30.00,Tuesday
7,-10.6
8,0.0
9,0.0
10,0.0
11,0.0
12,0.0
13,0.0
14,2.3104330249930884
15,-11.540554690681875
16,-0.11872682464962736
17,-9.890323444024887
18,2.7839124978510085
2,1, 1, 1, 0, 6,30.00,45.00,Tuesday
7,-10.6
8,0.0
9,0.0
10,0.0
11,0.0
12,0.0
13,0.0
14,2.2674131856441259
15,-11.541391637677517
16,-0.15518712407401837
17,-9.896509962110713
18,2.740095923000658
2,1, 1, 1, 0, 6,45.00,60.00,Tuesday
7,-10.6
8,0.0
9,0.0
10,0.0
11,0.0
12,0.0
13,0.0
14,2.2240435046051885
15,-11.542227253833655
16,-0.19191465591734414
17,-9.903104774703479
18,2.6957120814761579
2,1, 1, 1, 0, 7, 0.00,15.00,Tuesday
7,-10.6
8,0.0
9,0.0
10,0.0
11,0.0
12,0.0
13,0.0
14,2.1827711275146828
15,-11.517844672033516
16,-0.23193537565850876
17,-9.920999665961518
18,2.651488285149305
2,1, 1, 1, 0, 7,15.00,30.00,Tuesday
7,-10.6
8,0.0
9,0.0
10,0.0
11,0.0
12,0.0
13,0.0
14,2.1413577479524967
15,-11.494724998013768
16,-0.27045891048510387
17,-9.938843406198999
18,2.607791219726337
2,1, 1, 1, 0, 7,30.00,45.00,Tuesday
7,-10.6
8,0.0
9,0.0
10,0.0
11,0.0
12,0.0
13,0.0
14,2.1002327762909385
15,-11.472778590571066
16,-0.30867711435814729
17,-9.956152374090891
18,2.5645940844687487
2,1, 1, 1, 0, 7,45.00,60.00,Tuesday
7,-10.6
8,0.0
9,0.0
10,0.0
11,0.0
12,0.0
13,0.0
14,2.0594026067461086
15,-11.451936355474923
16,-0.3464910626215669
17,-9.972842685617764
18,2.5217673452797726
2,1, 1, 1, 0, 8, 0.00,15.00,Tuesday
7,-10.45
8,0.0
9,0.0
10,0.0
11,0.0
12,0.0
13,0.0
14,2.017758599835433
15,-11.40346173722032
16,-0.3670447745171259
17,-9.927463667974167
18,2.4788599481971769
2,1, 1, 1, 0, 8,15.00,30.00,Tuesday
7,-10.3
8,115.03919117926972
9,1.0
10,22.819555959623899
11,1.0
12,22.819555959623899
13,115.03919117926972
14,2.088238782016637
15,-9.73027148362778
16,-0.044647707592105238
17,-9.595577210136583
18,2.451888492771522
2,1, 1, 1, 0, 8,30.00,45.00,Tuesday
7,-10.15
8,564.843581773016
9,1.0
10,109.75755355442667
11,1.0
12,109.75755355442667
13,564.843581773016
14,2.4633874774178814
15,-3.3656373408019135
16,1.3291078871562832
17,-8.432102955462938
18,2.485126001667541
2,1, 1, 1, 0, 8,45.00,60.00,Tuesday
7,-10.0
8,1027.107415698465
9,1.0
10,195.8764694434918
11,1.0
12,195.8764694434918
13,1027.107415698465
14,2.9449067657162319
15,3.1279570372276046
16,2.901876581952024
17,-7.245523503725167
18,2.583934091346577
2,1, 1, 1, 0, 9, 0.00,15.00,Tuesday
7,-9.725
8,1487.7790350735168
9,1.0
10,278.97248314719988
11,1.0
12,278.97248314719988
13,1487.7790350735168
14,3.3158837516611534
15,8.299549901181303
16,4.362522640156044
17,-6.192608205753459
18,2.7328981132874587
2,1, 1, 1, 0, 9,15.00,30.00,Tuesday
7,-9.45
8,1973.3797118442713
9,1.0
10,364.91995730569456
11,1.0
12,364.91995730569456
13,1973.3797118442713
14,3.718992736349989
15,13.379871026034758
16,5.814288452811752
17,-5.139302652086542
18,2.9241036306042536
2,1, 1, 1, 0, 9,30.00,45.00,Tuesday
7,-9.175
8,2294.651274485231
9,1.0
10,420.35879993239237
11,1.0
12,420.35879993239237
13,2294.651274485231
14,3.996978683115247
15,16.13818859396817
16,6.7958987382641
17,-4.482127503719994
18,3.1382390118250216
2,1, 1, 1, 0, 9,45.00,60.00,Tuesday
7,-8.9
8,2628.157408555287
9,1.0
10,478.00138373643099
11,1.0
12,478.00138373643099
13,2628.157408555287
14,4.32459061405488
15,19.13330184046194
16,7.774207902347882
17,-3.801844191492137
18,3.3651743368683988
2,1, 1, 1, 0,10, 0.00,15.00,Tuesday
7,-8.350000000000002
8,2968.709586547734
9,1.0
10,536.9185644770597
11,1.0
12,536.9185644770597
13,2968.709586547734
14,4.5954225800690209
15,20.251724621704719
16,8.784108541648437
17,-3.0654825969694459
18,3.6055118501228344
2,1, 1, 1, 0,10,15.00,30.00,Tuesday
7,-7.800000000000001
8,3321.0268194611828
9,1.0
10,598.0969199229219
11,1.0
12,598.0969199229219
13,3321.0268194611828
14,4.891803834530717
15,21.50535400115705
16,9.80670997656199
17,-2.323378781562951
18,3.8673221373614026
2,1, 1, 1, 0,10,30.00,45.00,Tuesday
7,-7.25
8,3552.151013375401
9,1.0
10,637.6133352894237
11,1.0
12,637.6133352894237
13,3552.151013375401
14,5.118251172730116
15,21.56570439510073
16,10.544451706101939
17,-1.8209414658728065
18,4.136811200840418
2,1, 1, 1, 0,10,45.00,60.00,Tuesday
7,-6.7
8,3779.8708706745844
9,1.0
10,676.6412284283772
11,1.0
12,676.6412284283772
13,3779.8708706745844
14,5.365410521161547
15,21.72638651723792
16,11.253520862577773
17,-1.31186614612443
18,4.40263936129068
2,1, 1, 1, 0,11, 0.00,15.00,Tuesday
7,-6.275
8,4003.447923168032
9,1.0
10,715.0112779846514
11,1.0
12,715.0112779846514
13,4003.447923168032
14,5.688910334906466
15,23.824021641621738
16,11.991313413335604
17,-0.5875938218114243
18,4.666800073108644
2,1, 1, 1, 0,11,15.00,30.00,Tuesday
7,-5.85
8,4221.762249309513
9,1.0
10,752.5077794605232
11,1.0
12,752.5077794605232
13,4221.762249309513
14,6.000217280816234
15,25.759064521440558
16,12.721364295768467
17,0.11523058790692176
18,4.933548267703776
2,1, 1, 1, 0,11,30.00,45.00,Tuesday
7,-5.425
8,4156.879578089225
9,1.0
10,742.5988714321785
11,1.0
12,742.5988714321785
13,4156.879578089225
14,6.18108445712523
15,25.610926787911699
16,12.843930859935086
17,0.40496508188743976
18,5.186339508769687
2,1, 1, 1, 0,11,45.00,60.00,Tuesday
7,-5.0
8,4064.169807818047
9,1.0
10,727.8169025450712
11,1.0
12,727.8169025450712
13,4064.169807818047
14,6.357507876390856
15,25.381730510027489
16,12.878051472042046
17,0.6629051653951592
18,5.413158732316056
2,1, 1, 1, 0,12, 0.00,15.00,Tuesday
7,-4.575
8,3904.7370931113848
9,1.0
10,700.3759009170325
11,1.0
12,700.3759009170325
13,3904.7370931113848
14,6.479059471745027
15,24.639129278756248
16,12.755369105382556
17,0.8622880369733252
18,5.607632616710788
2,1, 1, 1, 0,12,15.00,30.00,Tuesday
7,-4.15
8,3786.4971101905705
9,1.0
10,681.6705029034473
11,1.0
12,681.6705029034473
13,3786.4971101905705
14,6.621833880099539
15,24.30869319466377
16,12.715389352724344
17,1.1283831189482499
18,5.777148404165709
2,1, 1, 1, 0,12,30.00,45.00,Tuesday
7,-3.7249999999999998
8,3324.2291040318089
9,1.0
10,602.01865277251
11,1.0
12,602.01865277251
13,3324.2291040318089
14,6.538760428979434
15,21.280366799307246
16,11.898717312978704
17,0.900852964355181
18,5.9016375620605319
2,1, 1, 1, 0,12,45.00,60.00,Tuesday
7,-3.3
8,2714.939666512416
9,1.0
10,493.55004396206007
11,1.0
12,493.55004396206007
13,2714.939666512416
14,6.352813890511365
15,17.101918427214064
16,10.625465635398826
17,0.42255637742573529
18,5.959477966218127
2,1, 1, 1, 0,13, 0.00,15.00,Tuesday
7,-3.0249999999999996
8,2241.7153986594264
9,1.0
10,412.335026418112
11,1.0
12,412.335026418112
13,2241.7153986594264
14,6.2206724025384239
15,14.25754109769532
16,9.606548431476427
17,0.08955045659558891
18,5.964221206016433
2,1, 1, 1, 0,13,15.00,30.00,Tuesday
7,-2.75
8,1641.850123185226
9,1.0
10,305.94037763660148
11,1.0
12,305.94037763660148
13,1641.850123185226
14,5.936478716531422
15,10.084220810001645
16,8.213934099877406
17,-0.470172940296834
18,5.925143075536295
2,1, 1, 1, 0,13,30.00,45.00,Tuesday
7,-2.475
8,1498.9510431694724
9,1.0
10,281.0763483922329
11,1.0
12,281.0763483922329
13,1498.9510431694724
14,5.916590517888541
15,9.570184872239946
16,7.875895028586342
17,-0.35695104881165209
18,5.873322458849118
2,1, 1, 1, 0,13,45.00,60.00,Tuesday
7,-2.2
8,1359.0287484929959
9,1.0
10,256.7721209415886
11,1.0
12,256.7721209415886
13,1359.0287484929959
14,5.885040057902892
15,8.964464178895748
16,7.607849671533813
17,-0.2196187353750929
18,5.82904257125467
2,1, 1, 1, 0,14, 0.00,15.00,Tuesday
7,-1.9250000000000003
8,1110.188267973163
9,1.0
10,210.73276284570657
11,1.0
12,210.73276284570657
13,1110.188267973163
14,5.762247307618551
15,7.416241791004828
16,7.014486408744858
17,-0.3119898813344548
18,5.788888426548725
2,1, 1, 1, 0,14,15.00,30.00,Tuesday
7,-1.6500000000000002
8,986.2055451828589
9,1.0
10,189.38488290342594
11,1.0
12,189.38488290342594
13,986.2055451828589
14,5.734522237524005
15,7.011119424917163
16,6.732020104384617
17,-0.19706856225866432
18,5.75338005756379
2,1, 1, 1, 0,14,30.00,45.00,Tuesday
7,-1.375
8,940.5609907953474
9,1.0
10,179.3940297802914
11,1.0
12,179.3940297802914
13,940.5609907953474
14,5.731682712136499
15,7.133132230301617
16,6.662887265129939
17,0.03234934477927709
18,5.724197968823716
2,1, 1, 1, 0,14,45.00,60.00,Tuesday
7,-1.1
8,894.3949724036753
9,1.0
10,169.43349014176136
11,1.0
12,169.43349014176136
13,894.3949724036753
14,5.727469077830123
15,7.231474258176137
16,6.587910565474772
17,0.259973238682619
18,5.701298906586009
2,1, 1, 1, 0,15, 0.00,15.00,Tuesday
7,-1.1
8,941.4068197394458
9,1.0
10,178.15692317953907
11,1.0
12,178.15692317953907
13,941.4068197394458
14,5.783284923358292
15,8.048261457668922
16,6.724053679345843
17,0.3880318201038335
18,5.687505929712881
2,1, 1, 1, 0,15,15.00,30.00,Tuesday
7,-1.1
8,884.4258525960432
9,1.0
10,166.40516310952945
11,1.0
12,166.40516310952945
13,884.4258525960432
14,5.739769712561454
15,7.684567161214947
16,6.571153635458018
17,0.32164787710411249
18,5.677707027946972
2,1, 1, 1, 0,15,30.00,45.00,Tuesday
7,-1.1
8,745.7319878230006
9,1.0
10,140.8967369711617
11,1.0
12,140.8967369711617
13,745.7319878230006
14,5.637610298076915
15,6.47725173404785
16,6.161172971763733
17,0.082991850971041
18,5.660461143675435
2,1, 1, 1, 0,15,45.00,60.00,Tuesday
7,-1.1
8,613.6766501346383
9,1.0
10,116.57355796743004
11,1.0
12,116.57355796743004
13,613.6766501346383
14,5.528412430646685
15,5.266265926261473
16,5.735199508790856
17,-0.17038360980802737
18,5.627976420654738
2,1, 1, 1, 0,16, 0.00,15.00,Tuesday
7,-1.1
8,487.0488027440361
9,1.0
10,93.14939272689483
11,1.0
12,93.14939272689483
13,487.0488027440361
14,5.436373713356178
15,4.215053413682679
16,5.32427188022433
17,-0.35711213742536077
18,5.580264494445453
2,1, 1, 1, 0,16,15.00,30.00,Tuesday
7,-1.1
8,302.3607792671943
9,1.0
10,57.94047897402063
11,1.0
12,57.94047897402063
13,302.3607792671943
14,5.2606643083656989
15,2.0879887100786096
16,4.7403943886660049
17,-0.7013455039727887
18,5.511531253576217
2,1, 1, 1, 0,16,30.00,45.00,Tuesday
7,-1.1
8,234.42837183280779
9,1.0
10,45.38251793443488
11,1.0
12,45.38251793443488
13,234.42837183280779
14,5.194010052724688
15,1.4743347052242766
16,4.494141242479884
17,-0.7871019636124288
18,5.430434818534313
2,1, 1, 1, 0,16,45.00,60.00,Tuesday
7,-1.1
8,163.64653449269407
9,1.0
10,32.02625108222755
11,1.0
12,32.02625108222755
13,163.64653449269407
14,5.092521950099516
15,0.6073489575426267
16,4.258389607751667
17,-0.8859938201132991
18,5.344151284947065
2,1, 1, 1, 0,17, 0.00,15.00,Tuesday
7,-1.1
8,89.75989496584296
9,1.0
10,17.762198626050539
11,1.0
12,17.762198626050539
13,89.75989496584296
14,4.961763118055902
15,-0.6491328178996992
16,3.968823514695373
17,-1.109418752286956
18,5.255193118608171
2,1, 1, 1, 0,17,15.00,30.00,Tuesday
7,-1.1
8,0.0
9,0.0
10,0.0
11,0.0
12,0.0
13,0.0
14,4.782895039063972
15,-2.488630671672953
16,3.611610337623688
17,-1.4131539231641455
18,5.1554168546193079
2,1, 1, 1, 0,17,30.00,45.00,Tuesday
7,-1.1
8,0.0
9,0.0
10,0.0
11,0.0
12,0.0
13,0.0
14,4.731217394305883
15,-2.626743808349033
16,3.5172171321735279
17,-1.4536722652639469
18,5.05863223112453
2,1, 1, 1, 0,17,45.00,60.00,Tuesday
7,-1.1
8,0.0
9,0.0
10,0.0
11,0.0
12,0.0
13,0.0
14,4.66521229550928
15,-2.821750169827855
16,3.4597930546949557
17,-1.4983401549436622
18,4.9773254226315439
2,1, 1, 1, 0,18, 0.00,15.00,Tuesday
7,-1.25
8,0.0
9,0.0
10,0.0
11,0.0
12,0.0
13,0.0
14,4.6107679578031
15,-2.9690517864389669
16,3.376216872951204
17,-1.6434262265294138
18,4.912701105982407
2,1, 1, 1, 0,18,15.00,30.00,Tuesday
7,-1.4
8,0.0
9,0.0
10,0.0
11,0.0
12,0.0
13,0.0
14,4.5613802912214009
15,-3.1214228776110297
16,3.307531339510433
17,-1.7753938450584884
18,4.860197262087424
2,1, 1, 1, 0,18,30.00,45.00,Tuesday
7,-1.5499999999999999
8,0.0
9,0.0
10,0.0
11,0.0
12,0.0
13,0.0
14,4.516272319558795
15,-3.273257119339393
16,3.2429001135951127
17,-1.9073132907057016
18,4.814752036502834
2,1, 1, 1, 0,18,45.00,60.00,Tuesday
7,-1.7
8,0.0
9,0.0
10,0.0
11,0.0
12,0.0
13,0.0
14,4.473365654647836
15,-3.4252589998646094
16,3.181355078573006
17,-2.0383818271657789
18,4.772962068632901
2,1, 1, 1, 0,19, 0.00,15.00,Tuesday
7,-1.825
8,0.0
9,0.0
10,0.0
11,0.0
12,0.0
13,0.0
14,4.456762970401919
15,-3.271712497818629
16,3.1393486634094645
17,-2.0957384185451248
18,4.736765184185208
2,1, 1, 1, 0,19,15.00,30.00,Tuesday
7,-1.9500000000000002
8,0.0
9,0.0
10,0.0
11,0.0
12,0.0
13,0.0
14,4.439397212995156
15,-3.2002283067298484
16,3.1009798148278948
17,-2.1735933476821858
18,4.707838168695411
2,1, 1, 1, 0,19,30.00,45.00,Tuesday
7,-2.075
8,0.0
9,0.0
10,0.0
11,0.0
12,0.0
13,0.0
14,4.41715231858141
15,-3.2727246408867187
16,3.062124625777642
17,-2.2718754430513856
18,4.684508310950245
2,1, 1, 1, 0,19,45.00,60.00,Tuesday
7,-2.2
8,0.0
9,0.0
10,0.0
11,0.0
12,0.0
13,0.0
14,4.398116652975857
15,-3.246381119308247
16,3.0263292324374335
17,-2.360660124090032
18,4.663726639421339
2,1, 1, 1, 0,20, 0.00,15.00,Tuesday
7,-1.9250000000000003
8,0.0
9,0.0
10,0.0
11,0.0
12,0.0
13,0.0
14,4.39549209065312
15,-2.944169435621087
16,3.0680731406090446
17,-2.1341809253572707
18,4.645624763941418
2,1, 1, 1, 0,20,15.00,30.00,Tuesday
7,-1.6500000000000002
8,0.0
9,0.0
10,0.0
11,0.0
12,0.0
13,0.0
14,4.392710205375074
15,-2.6450826070642186
16,3.1110717989444085
17,-1.8979242457944566
18,4.6305491282824529
2,1, 1, 1, 0,20,30.00,45.00,Tuesday
7,-1.375
8,0.0
9,0.0
10,0.0
11,0.0
12,0.0
13,0.0
14,4.391551070301358
15,-2.3472999983467925
16,3.1553910806309206
17,-1.6599607255444653
18,4.618125841052341
2,1, 1, 1, 0,20,45.00,60.00,Tuesday
7,-1.1
8,0.0
9,0.0
10,0.0
11,0.0
12,0.0
13,0.0
14,4.391846203817249
15,-2.050827886073599
16,3.201493672571928
17,-1.4204515244177288
18,4.6077361905222669
2,1, 1, 1, 0,21, 0.00,15.00,Tuesday
7,-1.25
8,0.0
9,0.0
10,0.0
11,0.0
12,0.0
13,0.0
14,4.348984654504437
15,-2.3361113870837366
16,3.154570816785281
17,-1.5559110330029853
18,4.592812069507552
2,1, 1, 1, 0,21,15.00,30.00,Tuesday
7,-1.4
8,0.0
9,0.0
10,0.0
11,0.0
12,0.0
13,0.0
14,4.307280667127662
15,-2.554864606809509
16,3.1013615787047117
17,-1.687272969108335
18,4.568698122896989
2,1, 1, 1, 0,21,30.00,45.00,Tuesday
7,-1.5499999999999999
8,0.0
9,0.0
10,0.0
11,0.0
12,0.0
13,0.0
14,4.251763861978946
15,-2.904676693721016
16,3.040914777799969
17,-1.8356862136968176
18,4.534239260325688
2,1, 1, 1, 0,21,45.00,60.00,Tuesday
7,-1.7
8,0.0
9,0.0
10,0.0
11,0.0
12,0.0
13,0.0
14,4.190782676053868
15,-3.362859701509682
16,2.9667027202574447
17,-2.007050803753259
18,4.49135752708805
2,1, 1, 1, 0,22, 0.00,15.00,Tuesday
7,-1.5499999999999999
8,0.0
9,0.0
10,0.0
11,0.0
12,0.0
13,0.0
14,4.201094260964014
15,-2.867907348014557
16,2.9726276328827909
17,-1.8494184524807907
18,4.453987862838206
2,1, 1, 1, 0,22,15.00,30.00,Tuesday
7,-1.4
8,0.0
9,0.0
10,0.0
11,0.0
12,0.0
13,0.0
14,4.20189368525034
15,-2.532724893875414
16,2.9975020726828349
17,-1.703039697127906
18,4.429760421291722
2,1, 1, 1, 0,22,30.00,45.00,Tuesday
7,-1.25
8,0.0
9,0.0
10,0.0
11,0.0
12,0.0
13,0.0
14,4.200818650105458
15,-2.310375833035659
16,3.0200250375128236
17,-1.5710586021901918
18,4.416500968046908
2,1, 1, 1, 0,22,45.00,60.00,Tuesday
7,-1.1
8,0.0
9,0.0
10,0.0
11,0.0
12,0.0
13,0.0
14,4.203685202136562
15,-2.0237942089501255
16,3.049452823440106
17,-1.423463007643079
18,4.409012449031993
2,1, 1, 1, 0,23, 0.00,15.00,Tuesday
7,-1.25
8,0.0
9,0.0
10,0.0
11,0.0
12,0.0
13,0.0
14,4.159990207385672
15,-2.327270259467724
16,2.969798028191235
17,-1.7029228898368274
18,4.39688685206419
2,1, 1, 1, 0,23,15.00,30.00,Tuesday
7,-1.4
8,0.0
9,0.0
10,0.0
11,0.0
12,0.0
13,0.0
14,4.119714539701998
15,-2.63178808055518
16,2.878172115929317
17,-1.9994384598156785
18,4.3748093786026909
2,1, 1, 1, 0,23,30.00,45.00,Tuesday
7,-1.5499999999999999
8,0.0
9,0.0
10,0.0
11,0.0
12,0.0
13,0.0
14,4.075038012219576
15,-2.9369838723484218
16,2.7856047460941797
17,-2.2959303367365466
18,4.343665372078007
2,1, 1, 1, 0,23,45.00,60.00,Tuesday
7,-1.7
8,0.0
9,0.0
10,0.0
11,0.0
12,0.0
13,0.0
14,4.026574074334877
15,-3.2425201883198415
16,2.6894116584086875
17,-2.5928266423346715
18,4.306282275746348
2,1, 1, 1, 0,24, 0.00,15.00,Tuesday
7,-1.7
8,0.0
9,0.0
10,0.0
11,0.0
12,0.0
13,0.0
14,3.99548130580584
15,-3.296409529976581
16,2.645742343311781
17,-2.6534429060424715
18,4.268147329001551
2,1, 1, 1, 0,24,15.00,30.00,Tuesday
7,-1.7
8,0.0
9,0.0
10,0.0
11,0.0
12,0.0
13,0.0
14,3.961312322971539
15,-3.351014768282192
16,2.6066241546724315
17,-2.7135888786377224
18,4.232248885214608
2,1, 1, 1, 0,24,30.00,45.00,Tuesday
7,-1.7
8,0.0
9,0.0
10,0.0
11,0.0
12,0.0
13,0.0
14,3.928056584882091
15,-3.405476147489941
16,2.566979271837454
17,-2.7739120796520639
18,4.19866311952532
2,1, 1, 1, 0,24,45.00,60.00,Tuesday
7,-1.7
8,0.0
9,0.0
10,0.0
11,0.0
12,0.0
13,0.0
14,3.8955070131705509
15,-3.459940168491364
16,2.5281315401762756
17,-2.834008578498697
18,4.166476535004254
End of Data
 Number of Records Written=        1152
