Program Version,EnergyPlus, Version 9.5.0-de239b2e5f, YMD=2023.02.16 21:09
1,5,Environment Title[],Latitude[deg],Longitude[deg],Time Zone[],Elevation[m]
2,8,Day of Simulation[],Month[],Day of Month[],DST Indicator[1=yes 0=no],Hour[],StartMinute[],EndMinute[],DayType
3,5,Cumulative Day of Simulation[],Month[],Day of Month[],DST Indicator[1=yes 0=no],DayType  ! When Daily Report Variables Requested
4,2,Cumulative Days of Simulation[],Month[]  ! When Monthly Report Variables Requested
5,1,Cumulative Days of Simulation[] ! When Run Period Report Variables Requested
6,1,Calendar Year of Simulation[] ! When Annual Report Variables Requested
7,1,Environment,Site Outdoor Air Drybulb Temperature [C] !TimeStep
8,1,ZONE ONE,Zone Windows Total Transmitted Solar Radiation Rate [W] !TimeStep
9,1,ZN001:WALL001,Surface Outside Face Sunlit Fraction [] !TimeStep
10,1,ZN001:WALL001,Surface Outside Face Incident Solar Radiation Rate per Area [W/m2] !TimeStep
11,1,ZN001:WALL001:WIN001,Surface Outside Face Sunlit Fraction [] !TimeStep
12,1,ZN001:WALL001:WIN001,Surface Outside Face Incident Solar Radiation Rate per Area [W/m2] !TimeStep
13,1,ZN001:WALL001:WIN001,Surface Window Transmitted Solar Radiation Rate [W] !TimeStep
14,1,ZN001:WALL001,Surface Inside Face Temperature [C] !TimeStep
15,1,ZN001:WALL001,Surface Outside Face Temperature [C] !TimeStep
16,1,ZN001:WALL001:WIN001,Surface Inside Face Temperature [C] !TimeStep
17,1,ZN001:WALL001:WIN001,Surface Outside Face Temperature [C] !TimeStep
18,1,ZONE ONE,Zone Mean Air Temperature [C] !TimeStep
End of Data Dictionary
1,RUN PERIOD 1,  41.98, -87.92,  -6.00, 201.00
2,1, 1, 1, 0, 1, 0.00,15.00,Tuesday
7,-4.324999999999999
8,0.0
9,0.0
10,0.0
11,0.0
12,0.0
13,0.0
14,5.222595740624007
15,-5.9088060875068619
16,2.8756788062049738
17,-4.391684371772612
18,5.663235949533529
2,1, 1, 1, 0, 1,15.00,30.00,Tuesday
7,-6.949999999999999
8,0.0
9,0.0
10,0.0
11,0.0
12,0.0
13,0.0
14,5.040745589489102
15,-8.376365749878655
16,2.2416552664126359
17,-6.458321639548444
18,5.566109961880127
2,1, 1, 1, 0, 1,30.00,45.00,Tuesday
7,-9.575
8,0.0
9,0.0
10,0.0
11,0.0
12,0.0
13,0.0
14,4.838721916599308
15,-10.85194192364543
16,1.6020476792973569
17,-8.531316364039072
18,5.436572455594954
2,1, 1, 1, 0, 1,45.00,60.00,Tuesday
7,-12.2
8,0.0
9,0.0
10,0.0
11,0.0
12,0.0
13,0.0
14,4.620632499396131
15,-13.33413249035748
16,0.9478603188457555
17,-10.612103337607266
18,5.284442607631431
2,1, 1, 1, 0, 2, 0.00,15.00,Tuesday
7,-12.075
8,0.0
9,0.0
10,0.0
11,0.0
12,0.0
13,0.0
14,4.55312395418762
15,-13.135244630127414
16,0.8839101025952232
17,-10.457809819316367
18,5.147393169531702
2,1, 1, 1, 0, 2,15.00,30.00,Tuesday
7,-11.95
8,0.0
9,0.0
10,0.0
11,0.0
12,0.0
13,0.0
14,4.471932365995332
15,-12.95815605886219
16,0.8536733970877322
17,-10.315510471230823
18,5.042704151711391
2,1, 1, 1, 0, 2,30.00,45.00,Tuesday
7,-11.825
8,0.0
9,0.0
10,0.0
11,0.0
12,0.0
13,0.0
14,4.408125740293983
15,-12.779891939033666
16,0.8291906432742167
17,-10.172725070083118
18,4.9649904558646249
2,1, 1, 1, 0, 2,45.00,60.00,Tuesday
7,-11.7
8,0.0
9,0.0
10,0.0
11,0.0
12,0.0
13,0.0
14,4.355677173968163
15,-12.601704668181684
16,0.8174404575138397
17,-10.027091825611877
18,4.903119310594867
2,1, 1, 1, 0, 3, 0.00,15.00,Tuesday
7,-11.549999999999999
8,0.0
9,0.0
10,0.0
11,0.0
12,0.0
13,0.0
14,4.305015976016055
15,-12.475737924321982
16,0.8167249317377809
17,-9.891311561841463
18,4.8480997220771508
2,1, 1, 1, 0, 3,15.00,30.00,Tuesday
7,-11.399999999999999
8,0.0
9,0.0
10,0.0
11,0.0
12,0.0
13,0.0
14,4.257535901753348
15,-12.351143395784506
16,0.8106949623886521
17,-9.736263761978194
18,4.79536148648535
2,1, 1, 1, 0, 3,30.00,45.00,Tuesday
7,-11.25
8,0.0
9,0.0
10,0.0
11,0.0
12,0.0
13,0.0
14,4.211047836381575
15,-12.228082357072506
16,0.8135357949709032
17,-9.599439592667523
18,4.7436613217839469
2,1, 1, 1, 0, 3,45.00,60.00,Tuesday
7,-11.1
8,0.0
9,0.0
10,0.0
11,0.0
12,0.0
13,0.0
14,4.164982184197576
15,-12.10660542651982
16,0.8098703887573038
17,-9.44480025038115
18,4.692758107185622
2,1, 1, 1, 0, 4, 0.00,15.00,Tuesday
7,-11.1
8,0.0
9,0.0
10,0.0
11,0.0
12,0.0
13,0.0
14,4.11522780685806
15,-12.078051947639397
16,0.7577121429216618
17,-9.481964269115736
18,4.64175900072525
2,1, 1, 1, 0, 4,15.00,30.00,Tuesday
7,-11.1
8,0.0
9,0.0
10,0.0
11,0.0
12,0.0
13,0.0
14,4.065843065879609
15,-12.05059960117983
16,0.7088964091901744
17,-9.518360106104297
18,4.590311626075607
2,1, 1, 1, 0, 4,30.00,45.00,Tuesday
7,-11.1
8,0.0
9,0.0
10,0.0
11,0.0
12,0.0
13,0.0
14,4.0162683568324228
15,-12.0246875690806
16,0.6604746358769376
17,-9.553846452157245
18,4.538535322972122
2,1, 1, 1, 0, 4,45.00,60.00,Tuesday
7,-11.1
8,0.0
9,0.0
10,0.0
11,0.0
12,0.0
13,0.0
14,3.966609526911483
15,-12.000184302801955
16,0.6122568400377304
17,-9.588319361892446
18,4.486652694540884
2,1, 1, 1, 0, 5, 0.00,15.00,Tuesday
7,-10.975
8,0.0
9,0.0
10,0.0
11,0.0
12,0.0
13,0.0
14,3.9226200007019287
15,-11.878198800059794
16,0.6029897184406536
17,-9.503402361310691
18,4.4359026975843929
2,1, 1, 1, 0, 5,15.00,30.00,Tuesday
7,-10.85
8,0.0
9,0.0
10,0.0
11,0.0
12,0.0
13,0.0
14,3.878850974745
15,-11.75628661647318
16,0.5914064954667992
17,-9.410477039490957
18,4.386782658253018
2,1, 1, 1, 0, 5,30.00,45.00,Tuesday
7,-10.725
8,0.0
9,0.0
10,0.0
11,0.0
12,0.0
13,0.0
14,3.8361191381260766
15,-11.634351653995415
16,0.580073522712155
17,-9.316664799012188
18,4.3390609526898
2,1, 1, 1, 0, 5,45.00,60.00,Tuesday
7,-10.6
8,0.0
9,0.0
10,0.0
11,0.0
12,0.0
13,0.0
14,3.794251961156587
15,-11.512426109654337
16,0.5695361805537687
17,-9.222597859033897
18,4.2923515066948039
2,1, 1, 1, 0, 6, 0.00,15.00,Tuesday
7,-10.6
8,0.0
9,0.0
10,0.0
11,0.0
12,0.0
13,0.0
14,3.7453317669797889
15,-11.513389254338938
16,0.5283797670741706
17,-9.224071803984657
18,4.24502732334679
2,1, 1, 1, 0, 6,15.00,30.00,Tuesday
7,-10.6
8,0.0
9,0.0
10,0.0
11,0.0
12,0.0
13,0.0
14,3.6970443378190249
15,-11.514293381109209
16,0.48840377960084427
17,-9.23216603794765
18,4.196366577003983
2,1, 1, 1, 0, 6,30.00,45.00,Tuesday
7,-10.6
8,0.0
9,0.0
10,0.0
11,0.0
12,0.0
13,0.0
14,3.6482145985810439
15,-11.515239908128225
16,0.44863083954174956
17,-9.240869222240804
18,4.146649737550166
2,1, 1, 1, 0, 6,45.00,60.00,Tuesday
7,-10.6
8,0.0
9,0.0
10,0.0
11,0.0
12,0.0
13,0.0
14,3.599065610529413
15,-11.516184571867847
16,0.4084971935805015
17,-9.24973140465687
18,4.096397010237891
2,1, 1, 1, 0, 7, 0.00,15.00,Tuesday
7,-10.6
8,0.0
9,0.0
10,0.0
11,0.0
12,0.0
13,0.0
14,3.551917182070414
15,-11.492592809580769
16,0.36146300125267319
17,-9.27899597937602
18,4.046275512241644
2,1, 1, 1, 0, 7,15.00,30.00,Tuesday
7,-10.6
8,0.0
9,0.0
10,0.0
11,0.0
12,0.0
13,0.0
14,3.504640041244748
15,-11.470224730172595
16,0.31633422679976777
17,-9.308450745323853
18,3.9966349532902116
2,1, 1, 1, 0, 7,30.00,45.00,Tuesday
7,-10.6
8,0.0
9,0.0
10,0.0
11,0.0
12,0.0
13,0.0
14,3.4576463511033355
15,-11.448993967587498
16,0.2716602960315413
17,-9.337144340747159
18,3.947463772658938
2,1, 1, 1, 0, 7,45.00,60.00,Tuesday
7,-10.6
8,0.0
9,0.0
10,0.0
11,0.0
12,0.0
13,0.0
14,3.4109468941832818
15,-11.428833075680766
16,0.22748641746261456
17,-9.36493054968264
18,3.898652841454964
2,1, 1, 1, 0, 8, 0.00,15.00,Tuesday
7,-10.45
8,0.0
9,0.0
10,0.0
11,0.0
12,0.0
13,0.0
14,3.3636515283291135
15,-11.379879066989023
16,0.20947075985958464
17,-9.314138090404299
18,3.8498987691612909
2,1, 1, 1, 0, 8,15.00,30.00,Tuesday
7,-10.3
8,148.01653406384325
9,1.0
10,22.819555959623899
11,1.0
12,22.819555959623899
13,148.01653406384325
14,3.4352338826450969
15,-9.70636834378585
16,0.5210621050832174
17,-8.977602942211889
18,3.818922579756113
2,1, 1, 1, 0, 8,30.00,45.00,Tuesday
7,-10.15
8,726.7626658810535
9,1.0
10,109.75755355442667
11,1.0
12,109.75755355442667
13,726.7626658810535
14,3.830994799467277
15,-3.3375881062731218
16,1.8354505485726805
17,-7.824605007838102
18,3.8550429546864279
2,1, 1, 1, 0, 8,45.00,60.00,Tuesday
7,-10.0
8,1321.5398876203654
9,1.0
10,195.8764694434918
11,1.0
12,195.8764694434918
13,1321.5398876203654
14,4.341169235452306
15,3.152526672715167
16,3.2894923950919976
17,-6.667688190017543
18,3.9651886061517547
2,1, 1, 1, 0, 9, 0.00,15.00,Tuesday
7,-9.725
8,1914.2684677032626
9,1.0
10,278.97248314719988
11,1.0
12,278.97248314719988
13,1914.2684677032626
14,4.7440956004429879
15,8.322761820825818
16,4.790828179001437
17,-5.611412612915501
18,4.127687058142483
2,1, 1, 1, 0, 9,15.00,30.00,Tuesday
7,-9.45
8,2539.072313923231
9,1.0
10,364.91995730569456
11,1.0
12,364.91995730569456
13,2539.072313923231
14,5.176641178324528
15,13.402302759947585
16,6.243525916958674
17,-4.561852498670305
18,4.334208696558529
2,1, 1, 1, 0, 9,30.00,45.00,Tuesday
7,-9.175
8,2952.440164549716
9,1.0
10,420.35879993239237
11,1.0
12,420.35879993239237
13,2952.440164549716
14,5.481067684710793
15,16.159964521479968
16,7.217651362403558
17,-3.9128248899621669
18,4.565007627831785
2,1, 1, 1, 0, 9,45.00,60.00,Tuesday
7,-8.9
8,3381.5497710085135
9,1.0
10,478.00138373643099
11,1.0
12,478.00138373643099
13,3381.5497710085135
14,5.838082453218274
15,19.15482416216334
16,8.187277286593599
17,-3.2422747457051175
18,4.8097195077223129
2,1, 1, 1, 0,10, 0.00,15.00,Tuesday
7,-8.350000000000002
8,3819.72525310092
9,1.0
10,536.9185644770597
11,1.0
12,536.9185644770597
13,3819.72525310092
14,6.141024691996849
15,20.271855534675614
16,9.183740371903923
17,-2.5424047479467619
18,5.068354642011408
2,1, 1, 1, 0,10,15.00,30.00,Tuesday
7,-7.800000000000001
8,4273.038382064532
9,1.0
10,598.0969199229219
11,1.0
12,598.0969199229219
13,4273.038382064532
14,6.472054902006317
15,21.52442887088441
16,10.195792843196728
17,-1.8447467808770739
18,5.347409009753744
2,1, 1, 1, 0,10,30.00,45.00,Tuesday
7,-7.25
8,4570.41705598247
9,1.0
10,637.6133352894237
11,1.0
12,637.6133352894237
13,4570.41705598247
14,6.727942336851617
15,21.583759728729555
16,10.925150046518752
17,-1.35734785587249
18,5.639282823074502
2,1, 1, 1, 0,10,45.00,60.00,Tuesday
7,-6.7
8,4863.415499985352
9,1.0
10,676.6412284283772
11,1.0
12,676.6412284283772
13,4863.415499985352
14,7.008635017952446
15,21.74370998898836
16,11.629198389232386
17,-0.8730388653367527
18,5.932286613185288
2,1, 1, 1, 0,11, 0.00,15.00,Tuesday
7,-6.275
8,5151.083555253686
9,1.0
10,715.0112779846514
11,1.0
12,715.0112779846514
13,5151.083555253686
14,7.366779377320117
15,23.84165625449832
16,12.380156411916119
17,-0.15669522008499826
18,6.227164839756922
2,1, 1, 1, 0,11,15.00,30.00,Tuesday
7,-5.85
8,5431.980261502767
9,1.0
10,752.5077794605232
11,1.0
12,752.5077794605232
13,5431.980261502767
14,7.71489893419859
15,25.776973552112965
16,13.124362620697696
17,0.5403088039462887
18,6.347096725290286
2,1, 1, 1, 0,11,30.00,45.00,Tuesday
7,-5.425
8,5348.498206243613
9,1.0
10,742.5988714321785
11,1.0
12,742.5988714321785
13,5348.498206243613
14,7.878277024693559
15,25.6277764348968
16,13.25936034211611
17,0.8264875937800298
18,6.571147345487257
2,1, 1, 1, 0,11,45.00,60.00,Tuesday
7,-5.0
8,5229.212085323862
9,1.0
10,727.8169025450712
11,1.0
12,727.8169025450712
13,5229.212085323862
14,8.010584164197443
15,25.39786422520972
16,13.27913917167939
17,1.0759835821522757
18,6.866013096539032
2,1, 1, 1, 0,12, 0.00,15.00,Tuesday
7,-4.575
8,5024.076099878796
9,1.0
10,700.3759009170325
11,1.0
12,700.3759009170325
13,5024.076099878796
14,8.182822999110672
15,24.65746706737325
16,13.192925876192135
17,1.2731150955499402
18,7.151639236665268
2,1, 1, 1, 0,12,15.00,30.00,Tuesday
7,-4.15
8,4871.94122931558
9,1.0
10,681.6705029034473
11,1.0
12,681.6705029034473
13,4871.94122931558
14,8.374925743630336
15,24.32741114402719
16,13.218082602395043
17,1.5423672599137604
18,7.398635786554412
2,1, 1, 1, 0,12,30.00,45.00,Tuesday
7,-3.7249999999999998
8,4277.158639322997
9,1.0
10,602.01865277251
11,1.0
12,602.01865277251
13,4277.158639322997
14,8.319019871702725
15,21.29938051624459
16,12.488385475685505
17,1.3204224545538637
18,7.577593757889429
2,1, 1, 1, 0,12,45.00,60.00,Tuesday
7,-3.3
8,3493.2091881935878
9,1.0
10,493.55004396206007
11,1.0
12,493.55004396206007
13,3493.2091881935878
14,8.140025267606223
15,17.12120885471858
16,11.296614549997799
17,0.8421298878571406
18,7.668142473732064
2,1, 1, 1, 0,13, 0.00,15.00,Tuesday
7,-3.0249999999999996
8,2884.3295946875239
9,1.0
10,412.335026418112
11,1.0
12,412.335026418112
13,2884.3295946875239
14,8.013574969775048
15,14.277251042223755
16,10.340992045111762
17,0.5140386703795343
18,7.691077531410182
2,1, 1, 1, 0,13,15.00,30.00,Tuesday
7,-2.75
8,2112.505852962877
9,1.0
10,305.94037763660148
11,1.0
12,305.94037763660148
13,2112.505852962877
14,7.717016396276947
15,10.104386896505938
16,9.009201122092464
17,-0.04515492371263008
18,7.658718646435881
2,1, 1, 1, 0,13,30.00,45.00,Tuesday
7,-2.475
8,1928.6430638732532
9,1.0
10,281.0763483922329
11,1.0
12,281.0763483922329
13,1928.6430638732532
14,7.692553874332814
15,9.592164846319655
16,8.697452553049061
17,0.06549405936380026
18,7.610114733135364
2,1, 1, 1, 0,13,45.00,60.00,Tuesday
7,-2.2
8,1748.610390799348
9,1.0
10,256.7721209415886
11,1.0
12,256.7721209415886
13,1748.610390799348
14,7.659706208561309
15,8.985320241005282
16,8.454447334409906
17,0.20039647807965367
18,7.5687182052356969
2,1, 1, 1, 0,14, 0.00,15.00,Tuesday
7,-1.9250000000000003
8,1428.4368474723443
9,1.0
10,210.73276284570657
11,1.0
12,210.73276284570657
13,1428.4368474723443
14,7.52328811271466
15,7.4380624156342629
16,7.882860136886961
17,0.11291308285075275
18,7.531712989970261
2,1, 1, 1, 0,14,15.00,30.00,Tuesday
7,-1.6500000000000002
8,1268.9130128286689
9,1.0
10,189.38488290342594
11,1.0
12,189.38488290342594
13,1268.9130128286689
14,7.489357964134496
15,7.031676250735733
16,7.615028936394083
17,0.2245419480804003
18,7.4986102948271349
2,1, 1, 1, 0,14,30.00,45.00,Tuesday
7,-1.375
8,1210.1839078162066
9,1.0
10,179.3940297802914
11,1.0
12,179.3940297802914
13,1210.1839078162066
14,7.48442629604361
15,7.156092076322241
16,7.564148750553727
17,0.45547342256918457
18,7.471341114260383
2,1, 1, 1, 0,14,45.00,60.00,Tuesday
7,-1.1
8,1150.7838549837705
9,1.0
10,169.43349014176136
11,1.0
12,169.43349014176136
13,1150.7838549837705
14,7.4760840460983088
15,7.255148145962781
16,7.505898134042241
17,0.6840874279924947
18,7.449627740456456
2,1, 1, 1, 0,15, 0.00,15.00,Tuesday
7,-1.1
8,1211.2722036175777
9,1.0
10,178.15692317953907
11,1.0
12,178.15692317953907
13,1211.2722036175777
14,7.535680991126043
15,8.072883693316605
16,7.654249971174181
17,0.823626328662499
18,7.436447804269027
2,1, 1, 1, 0,15,15.00,30.00,Tuesday
7,-1.1
8,1137.9569692377798
9,1.0
10,166.40516310952945
11,1.0
12,166.40516310952945
13,1137.9569692377798
14,7.485883218213696
15,7.7098409835735819
16,7.50161705222871
17,0.7646104343173192
18,7.426577771150706
2,1, 1, 1, 0,15,30.00,45.00,Tuesday
7,-1.1
8,959.5048700077512
9,1.0
10,140.8967369711617
11,1.0
12,140.8967369711617
13,959.5048700077512
14,7.369909310987847
15,6.503166284969947
16,7.081785249256427
17,0.5327497771291974
18,7.410687143600847
2,1, 1, 1, 0,15,45.00,60.00,Tuesday
7,-1.1
8,789.5943100591383
9,1.0
10,116.57355796743004
11,1.0
12,116.57355796743004
13,789.5943100591383
14,7.2575425798708219
15,5.2944184586794889
16,6.682047887017461
17,0.29431805517447176
18,7.377233790920218
2,1, 1, 1, 0,16, 0.00,15.00,Tuesday
7,-1.1
8,626.6670946064958
9,1.0
10,93.14939272689483
11,1.0
12,93.14939272689483
13,626.6670946064958
14,7.157586099689678
15,4.24430054985771
16,6.330125317413945
17,0.13540691957814489
18,7.324558919568314
2,1, 1, 1, 0,16,15.00,30.00,Tuesday
7,-1.1
8,389.0360678411529
9,1.0
10,57.94047897402063
11,1.0
12,57.94047897402063
13,389.0360678411529
14,6.968013711724479
15,2.119738892919981
16,5.793004212958351
17,-0.17705918344893235
18,7.2459613593695029
2,1, 1, 1, 0,16,30.00,45.00,Tuesday
7,-1.1
8,301.6300334628514
9,1.0
10,45.38251793443488
11,1.0
12,45.38251793443488
13,301.6300334628514
14,6.893869407201155
15,1.5089325841869326
16,5.565345253135206
17,-0.23946675327039203
18,7.152664077256141
2,1, 1, 1, 0,16,45.00,60.00,Tuesday
7,-1.1
8,210.55774644166127
9,1.0
10,32.02625108222755
11,1.0
12,32.02625108222755
13,210.55774644166127
14,6.780708767985324
15,0.6452078072830497
16,5.347590479451128
17,-0.30728029844033247
18,7.059101549484115
2,1, 1, 1, 0,17, 0.00,15.00,Tuesday
7,-1.1
8,115.49062901598868
9,1.0
10,17.762198626050539
11,1.0
12,17.762198626050539
13,115.49062901598868
14,6.6423168695183059
15,-0.6065283836621284
16,5.072894237965272
17,-0.48732832803477779
18,6.966026764634498
2,1, 1, 1, 0,17,15.00,30.00,Tuesday
7,-1.1
8,0.0
9,0.0
10,0.0
11,0.0
12,0.0
13,0.0
14,6.454622713472742
15,-2.4439977518708226
16,4.72502228553094
17,-0.7755732125463055
18,6.862135840705915
2,1, 1, 1, 0,17,30.00,45.00,Tuesday
7,-1.1
8,0.0
9,0.0
10,0.0
11,0.0
12,0.0
13,0.0
14,6.399046525388364
15,-2.5800376990625488
16,4.640294309479543
17,-0.7763702287833212
18,6.761274266181415
2,1, 1, 1, 0,17,45.00,60.00,Tuesday
7,-1.1
8,0.0
9,0.0
10,0.0
11,0.0
12,0.0
13,0.0
14,6.328248105342875
15,-2.7713664576137906
16,4.595307403786705
17,-0.7603101714201443
18,6.676483643780167
2,1, 1, 1, 0,18, 0.00,15.00,Tuesday
7,-1.25
8,0.0
9,0.0
10,0.0
11,0.0
12,0.0
13,0.0
14,6.268875578193019
15,-2.9191585988826578
16,4.505605698847887
17,-0.8978999876629814
18,6.608495453011743
2,1, 1, 1, 0,18,15.00,30.00,Tuesday
7,-1.4
8,0.0
9,0.0
10,0.0
11,0.0
12,0.0
13,0.0
14,6.214706876794338
15,-3.071579324552651
16,4.429846201972964
17,-1.0274181003251215
18,6.552252413022306
2,1, 1, 1, 0,18,30.00,45.00,Tuesday
7,-1.5499999999999999
8,0.0
9,0.0
10,0.0
11,0.0
12,0.0
13,0.0
14,6.164724317196516
15,-3.2235292639141539
16,4.358345221260549
17,-1.156037159476
18,6.502513215136882
2,1, 1, 1, 0,18,45.00,60.00,Tuesday
7,-1.7
8,0.0
9,0.0
10,0.0
11,0.0
12,0.0
13,0.0
14,6.116769833173679
15,-3.375648531684922
16,4.289680346967316
17,-1.283902920686046
18,6.455935138063897
2,1, 1, 1, 0,19, 0.00,15.00,Tuesday
7,-1.825
8,0.0
9,0.0
10,0.0
11,0.0
12,0.0
13,0.0
14,6.093917237671057
15,-3.2278494873660055
16,4.21586203513516
17,-1.4268403860685908
18,6.414321705899646
2,1, 1, 1, 0,19,15.00,30.00,Tuesday
7,-1.9500000000000002
8,0.0
9,0.0
10,0.0
11,0.0
12,0.0
13,0.0
14,6.07000465264258
15,-3.161447136228352
16,4.154413025455938
17,-1.5630799500767694
18,6.379440789356608
2,1, 1, 1, 0,19,30.00,45.00,Tuesday
7,-2.075
8,0.0
9,0.0
10,0.0
11,0.0
12,0.0
13,0.0
14,6.041539239308996
15,-3.235352928417253
16,4.104961966779001
17,-1.6752404207007886
18,6.349878785913567
2,1, 1, 1, 0,19,45.00,60.00,Tuesday
7,-2.2
8,0.0
9,0.0
10,0.0
11,0.0
12,0.0
13,0.0
14,6.015991238001988
15,-3.21346683150839
16,4.047847052729821
17,-1.8078317829281332
18,6.322595743976959
2,1, 1, 1, 0,20, 0.00,15.00,Tuesday
7,-1.9250000000000003
8,0.0
9,0.0
10,0.0
11,0.0
12,0.0
13,0.0
14,6.006343865633844
15,-2.912382958772078
16,4.093435459327338
17,-1.6034528395110784
18,6.298078634912897
2,1, 1, 1, 0,20,15.00,30.00,Tuesday
7,-1.6500000000000002
8,0.0
9,0.0
10,0.0
11,0.0
12,0.0
13,0.0
14,5.998244898003693
15,-2.6142769102306375
16,4.137544291854283
17,-1.3871571577542455
18,6.276972298864223
2,1, 1, 1, 0,20,30.00,45.00,Tuesday
7,-1.375
8,0.0
9,0.0
10,0.0
11,0.0
12,0.0
13,0.0
14,5.990904831046706
15,-2.3174921874019138
16,4.183593173317263
17,-1.1686274666580517
18,6.258847527824624
2,1, 1, 1, 0,20,45.00,60.00,Tuesday
7,-1.1
8,0.0
9,0.0
10,0.0
11,0.0
12,0.0
13,0.0
14,5.985205986338448
15,-2.021922840935782
16,4.231248922987447
17,-0.9487552193007787
18,6.242907226820585
2,1, 1, 1, 0,21, 0.00,15.00,Tuesday
7,-1.25
8,0.0
9,0.0
10,0.0
11,0.0
12,0.0
13,0.0
14,5.937377087365018
15,-2.30269147220065
16,4.188838289503963
17,-1.0338985599197486
18,6.22229226688353
2,1, 1, 1, 0,21,15.00,30.00,Tuesday
7,-1.4
8,0.0
9,0.0
10,0.0
11,0.0
12,0.0
13,0.0
14,5.8911123378564309
15,-2.519038315120674
16,4.134033032626633
17,-1.1363888796367406
18,6.1923338532767409
2,1, 1, 1, 0,21,30.00,45.00,Tuesday
7,-1.5499999999999999
8,0.0
9,0.0
10,0.0
11,0.0
12,0.0
13,0.0
14,5.831369020415894
15,-2.8628968777486545
16,4.083354181146092
17,-1.2187244183976418
18,6.152222119495743
2,1, 1, 1, 0,21,45.00,60.00,Tuesday
7,-1.7
8,0.0
9,0.0
10,0.0
11,0.0
12,0.0
13,0.0
14,5.7663652967565499
15,-3.31427009048579
16,4.033684024967442
17,-1.2761114674345322
18,6.104225476121223
2,1, 1, 1, 0,22, 0.00,15.00,Tuesday
7,-1.5499999999999999
8,0.0
9,0.0
10,0.0
11,0.0
12,0.0
13,0.0
14,5.769962148162567
15,-2.82737574165678
16,4.007959799360151
17,-1.235197010907882
18,6.061844927711945
2,1, 1, 1, 0,22,15.00,30.00,Tuesday
7,-1.4
8,0.0
9,0.0
10,0.0
11,0.0
12,0.0
13,0.0
14,5.763698330087527
15,-2.4977036238663725
16,4.016435636212577
17,-1.1584892058980359
18,6.032399340748009
2,1, 1, 1, 0,22,30.00,45.00,Tuesday
7,-1.25
8,0.0
9,0.0
10,0.0
11,0.0
12,0.0
13,0.0
14,5.756251424433233
15,-2.2778166238363566
16,4.033150698621512
17,-1.0588294068734854
18,6.013669010388527
2,1, 1, 1, 0,22,45.00,60.00,Tuesday
7,-1.1
8,0.0
9,0.0
10,0.0
11,0.0
12,0.0
13,0.0
14,5.752771453855518
15,-1.9956596876210203
16,4.0500222498529869
17,-0.9621679818848179
18,6.0004151295222549
2,1, 1, 1, 0,23, 0.00,15.00,Tuesday
7,-1.25
8,0.0
9,0.0
10,0.0
11,0.0
12,0.0
13,0.0
14,5.704399679971358
15,-2.2990500635089607
16,3.9556713312438775
17,-1.234295174441968
18,5.982055087232658
2,1, 1, 1, 0,23,15.00,30.00,Tuesday
7,-1.4
8,0.0
9,0.0
10,0.0
11,0.0
12,0.0
13,0.0
14,5.658980126291941
15,-2.6036494403767849
16,3.849812872532084
17,-1.5243081624415709
18,5.95341157561245
2,1, 1, 1, 0,23,30.00,45.00,Tuesday
7,-1.5499999999999999
8,0.0
9,0.0
10,0.0
11,0.0
12,0.0
13,0.0
14,5.608861809151141
15,-2.908919899561361
16,3.742103843290579
17,-1.8166891144040847
18,5.915628143336458
2,1, 1, 1, 0,23,45.00,60.00,Tuesday
7,-1.7
8,0.0
9,0.0
10,0.0
11,0.0
12,0.0
13,0.0
14,5.55484171760875
15,-3.2145320710296656
16,3.631136222461919
17,-2.108080340630636
18,5.871716717635113
2,1, 1, 1, 0,24, 0.00,15.00,Tuesday
7,-1.7
8,0.0
9,0.0
10,0.0
11,0.0
12,0.0
13,0.0
14,5.517047248770032
15,-3.268573116197679
16,3.5819304031019785
17,-2.1713000027521049
18,5.827314484395145
2,1, 1, 1, 0,24,15.00,30.00,Tuesday
7,-1.7
8,0.0
9,0.0
10,0.0
11,0.0
12,0.0
13,0.0
14,5.477106295662457
15,-3.3232406160238465
16,3.536533106864738
17,-2.2324575291534076
18,5.785429673190264
2,1, 1, 1, 0,24,30.00,45.00,Tuesday
7,-1.7
8,0.0
9,0.0
10,0.0
11,0.0
12,0.0
13,0.0
14,5.438218293838465
15,-3.377799578872365
16,3.4909603497991954
17,-2.293586523134195
18,5.746063897972098
2,1, 1, 1, 0,24,45.00,60.00,Tuesday
7,-1.7
8,0.0
9,0.0
10,0.0
11,0.0
12,0.0
13,0.0
14,5.40013262585845
15,-3.4323607661818738
16,3.4462768997209425
17,-2.3544035891652017
18,5.708204339414265
End of Data
 Number of Records Written=        1152
