Program Version,EnergyPlus, Version 9.5.0-de239b2e5f, YMD=2023.02.16 21:08
1,5,Environment Title[],Latitude[deg],Longitude[deg],Time Zone[],Elevation[m]
2,8,Day of Simulation[],Month[],Day of Month[],DST Indicator[1=yes 0=no],Hour[],StartMinute[],EndMinute[],DayType
3,5,Cumulative Day of Simulation[],Month[],Day of Month[],DST Indicator[1=yes 0=no],DayType  ! When Daily Report Variables Requested
4,2,Cumulative Days of Simulation[],Month[]  ! When Monthly Report Variables Requested
5,1,Cumulative Days of Simulation[] ! When Run Period Report Variables Requested
6,1,Calendar Year of Simulation[] ! When Annual Report Variables Requested
7,1,Environment,Site Outdoor Air Drybulb Temperature [C] !TimeStep
8,1,ZONE ONE,Zone Windows Total Transmitted Solar Radiation Rate [W] !TimeStep
9,1,ZN001:WALL001,Surface Outside Face Sunlit Fraction [] !TimeStep
10,1,ZN001:WALL001,Surface Outside Face Incident Solar Radiation Rate per Area [W/m2] !TimeStep
11,1,ZN001:WALL001:WIN001,Surface Outside Face Sunlit Fraction [] !TimeStep
12,1,ZN001:WALL001:WIN001,Surface Outside Face Incident Solar Radiation Rate per Area [W/m2] !TimeStep
13,1,ZN001:WALL001:WIN001,Surface Window Transmitted Solar Radiation Rate [W] !TimeStep
14,1,ZN001:WALL001,Surface Inside Face Temperature [C] !TimeStep
15,1,ZN001:WALL001,Surface Outside Face Temperature [C] !TimeStep
16,1,ZN001:WALL001:WIN001,Surface Inside Face Temperature [C] !TimeStep
17,1,ZN001:WALL001:WIN001,Surface Outside Face Temperature [C] !TimeStep
18,1,ZONE ONE,Zone Mean Air Temperature [C] !TimeStep
End of Data Dictionary
1,RUN PERIOD 1,  41.98, -87.92,  -6.00, 201.00
2,1, 1, 1, 0, 1, 0.00,15.00,Tuesday
7,-4.324999999999999
8,0.0
9,0.0
10,0.0
11,0.0
12,0.0
13,0.0
14,-0.8720587726308121
15,-6.020402692058899
16,-2.54808986568122
17,-5.111050482062865
18,-0.5960572252749
2,1, 1, 1, 0, 1,15.00,30.00,Tuesday
7,-6.949999999999999
8,0.0
9,0.0
10,0.0
11,0.0
12,0.0
13,0.0
14,-1.04838279121934
15,-8.488228087841588
16,-3.4073588670149776
17,-7.026972355699968
18,-0.6802495639300673
2,1, 1, 1, 0, 1,30.00,45.00,Tuesday
7,-9.575
8,0.0
9,0.0
10,0.0
11,0.0
12,0.0
13,0.0
14,-1.2474254098666922
15,-10.965318811029034
16,-4.2651003510734999
17,-8.949119051373657
18,-0.8022301960444
2,1, 1, 1, 0, 1,45.00,60.00,Tuesday
7,-12.2
8,0.0
9,0.0
10,0.0
11,0.0
12,0.0
13,0.0
14,-1.4637813512273539
15,-13.448899499795339
16,-5.134773600842777
17,-10.880668861551328
18,-0.9517667711015244
2,1, 1, 1, 0, 2, 0.00,15.00,Tuesday
7,-12.075
8,0.0
9,0.0
10,0.0
11,0.0
12,0.0
13,0.0
14,-1.5168243929059533
15,-13.251085436991503
16,-5.152850609362304
17,-10.767357892568498
18,-1.0863932243815784
2,1, 1, 1, 0, 2,15.00,30.00,Tuesday
7,-11.95
8,0.0
9,0.0
10,0.0
11,0.0
12,0.0
13,0.0
14,-1.5861550690908178
15,-13.073765159226893
16,-5.149118702453052
17,-10.640583699636068
18,-1.1859103917786292
2,1, 1, 1, 0, 2,30.00,45.00,Tuesday
7,-11.825
8,0.0
9,0.0
10,0.0
11,0.0
12,0.0
13,0.0
14,-1.6367222969669675
15,-12.895098653290928
16,-5.140248030521207
17,-10.51214131332847
18,-1.2548425445792045
2,1, 1, 1, 0, 2,45.00,60.00,Tuesday
7,-11.7
8,0.0
9,0.0
10,0.0
11,0.0
12,0.0
13,0.0
14,-1.6746397991249654
15,-12.716483346505854
16,-5.118884297264515
17,-10.379078619736447
18,-1.3047874338120516
2,1, 1, 1, 0, 3, 0.00,15.00,Tuesday
7,-11.549999999999999
8,0.0
9,0.0
10,0.0
11,0.0
12,0.0
13,0.0
14,-1.7103259620639049
15,-12.593288718117
16,-5.092573213776973
17,-10.249923720370134
18,-1.3457435269725496
2,1, 1, 1, 0, 3,15.00,30.00,Tuesday
7,-11.399999999999999
8,0.0
9,0.0
10,0.0
11,0.0
12,0.0
13,0.0
14,-1.7419928847405014
15,-12.471584011491882
16,-5.063692031702374
17,-10.121162427915693
18,-1.3830523614435149
2,1, 1, 1, 0, 3,30.00,45.00,Tuesday
7,-11.25
8,0.0
9,0.0
10,0.0
11,0.0
12,0.0
13,0.0
14,-1.77230210149715
15,-12.351554691548131
16,-5.032866671259569
17,-9.992411476962275
18,-1.4186151930547042
2,1, 1, 1, 0, 3,45.00,60.00,Tuesday
7,-11.1
8,0.0
9,0.0
10,0.0
11,0.0
12,0.0
13,0.0
14,-1.8018619986655198
15,-12.23326280616673
16,-5.001351738967628
17,-9.864093806600636
18,-1.4529304263953616
2,1, 1, 1, 0, 4, 0.00,15.00,Tuesday
7,-11.1
8,0.0
9,0.0
10,0.0
11,0.0
12,0.0
13,0.0
14,-1.8351506723897915
15,-12.200781088433973
16,-5.041589466010805
17,-9.88454477262485
18,-1.487248847821558
2,1, 1, 1, 0, 4,15.00,30.00,Tuesday
7,-11.1
8,0.0
9,0.0
10,0.0
11,0.0
12,0.0
13,0.0
14,-1.8680699240207988
15,-12.169567578525092
16,-5.075223665284113
17,-9.911395344642301
18,-1.5220764044621589
2,1, 1, 1, 0, 4,30.00,45.00,Tuesday
7,-11.1
8,0.0
9,0.0
10,0.0
11,0.0
12,0.0
13,0.0
14,-1.901225141397939
15,-12.140079367641944
16,-5.107726130006199
17,-9.938496523813797
18,-1.5573163014505836
2,1, 1, 1, 0, 4,45.00,60.00,Tuesday
7,-11.1
8,0.0
9,0.0
10,0.0
11,0.0
12,0.0
13,0.0
14,-1.9345319184196178
15,-12.112176408781244
16,-5.139910268056724
17,-9.965001989916914
18,-1.5927311998414218
2,1, 1, 1, 0, 5, 0.00,15.00,Tuesday
7,-10.975
8,0.0
9,0.0
10,0.0
11,0.0
12,0.0
13,0.0
14,-1.9608473420913169
15,-11.989776547947978
16,-5.1205621809269818
17,-9.88637096063502
18,-1.6268657041540998
2,1, 1, 1, 0, 5,15.00,30.00,Tuesday
7,-10.85
8,0.0
9,0.0
10,0.0
11,0.0
12,0.0
13,0.0
14,-1.9878967614994654
15,-11.86752356475982
16,-5.1034238758267069
17,-9.80051937189171
18,-1.65918994780916
2,1, 1, 1, 0, 5,30.00,45.00,Tuesday
7,-10.725
8,0.0
9,0.0
10,0.0
11,0.0
12,0.0
13,0.0
14,-2.013831720615158
15,-11.745207931102675
16,-5.086456571211215
17,-9.713688472817012
18,-1.6900048033287343
2,1, 1, 1, 0, 5,45.00,60.00,Tuesday
7,-10.6
8,0.0
9,0.0
10,0.0
11,0.0
12,0.0
13,0.0
14,-2.03888956138552
15,-11.622904758174231
16,-5.068791862699925
17,-9.626468181194014
18,-1.719753112216398
2,1, 1, 1, 0, 6, 0.00,15.00,Tuesday
7,-10.6
8,0.0
9,0.0
10,0.0
11,0.0
12,0.0
13,0.0
14,-2.0726477556986206
15,-11.623620411188016
16,-5.090586501287021
17,-9.629627748722442
18,-1.7502061377037497
2,1, 1, 1, 0, 6,15.00,30.00,Tuesday
7,-10.6
8,0.0
9,0.0
10,0.0
11,0.0
12,0.0
13,0.0
14,-2.1048786571929027
15,-11.624185737463753
16,-5.114336332948028
17,-9.636512028545099
18,-1.782185251108655
2,1, 1, 1, 0, 6,30.00,45.00,Tuesday
7,-10.6
8,0.0
9,0.0
10,0.0
11,0.0
12,0.0
13,0.0
14,-2.137790484649942
15,-11.624836249506228
16,-5.1379172017474279
17,-9.644179680659818
18,-1.8154220471572114
2,1, 1, 1, 0, 6,45.00,60.00,Tuesday
7,-10.6
8,0.0
9,0.0
10,0.0
11,0.0
12,0.0
13,0.0
14,-2.1710941993638799
15,-11.625483354220341
16,-5.161758313067651
17,-9.652276535638578
18,-1.8493674122256077
2,1, 1, 1, 0, 7, 0.00,15.00,Tuesday
7,-10.6
8,0.0
9,0.0
10,0.0
11,0.0
12,0.0
13,0.0
14,-2.2021734854573005
15,-11.598727903286154
16,-5.195601691926981
17,-9.673007622417459
18,-1.8833880383688429
2,1, 1, 1, 0, 7,15.00,30.00,Tuesday
7,-10.6
8,0.0
9,0.0
10,0.0
11,0.0
12,0.0
13,0.0
14,-2.233473033212304
15,-11.573366698740357
16,-5.2249328675638939
17,-9.694414916786286
18,-1.9170406105995482
2,1, 1, 1, 0, 7,30.00,45.00,Tuesday
7,-10.6
8,0.0
9,0.0
10,0.0
11,0.0
12,0.0
13,0.0
14,-2.264580487460518
15,-11.549285275968215
16,-5.253642123598979
17,-9.715574243255901
18,-1.9502570807089733
2,1, 1, 1, 0, 7,45.00,60.00,Tuesday
7,-10.6
8,0.0
9,0.0
10,0.0
11,0.0
12,0.0
13,0.0
14,-2.295436781229754
15,-11.526408516418867
16,-5.281869494151579
17,-9.736107963227028
18,-1.9831187931383965
2,1, 1, 1, 0, 8, 0.00,15.00,Tuesday
7,-10.45
8,0.0
9,0.0
10,0.0
11,0.0
12,0.0
13,0.0
14,-2.3272100356976845
15,-11.479625194955487
16,-5.276212140226562
17,-9.703424813359903
18,-2.0158757282045207
2,1, 1, 1, 0, 8,15.00,30.00,Tuesday
7,-10.3
8,48.37781979229514
9,1.0
10,22.819555959623899
11,1.0
12,22.819555959623899
13,48.37781979229514
14,-2.2574654513427
15,-9.807068282607827
16,-4.876447220507487
17,-9.301025704008567
18,-2.0352980824176787
2,1, 1, 1, 0, 8,30.00,45.00,Tuesday
7,-10.15
8,237.88593593245407
9,1.0
10,109.75755355442667
11,1.0
12,109.75755355442667
13,237.88593593245407
14,-1.911807829468271
15,-3.4544597086978698
16,-3.270385028099838
17,-7.900281665204204
18,-2.0057033132578736
2,1, 1, 1, 0, 8,45.00,60.00,Tuesday
7,-10.0
8,433.6486066510219
9,1.0
10,195.8764694434918
11,1.0
12,195.8764694434918
13,433.6486066510219
14,-1.5036578557715457
15,3.035667320323142
16,-1.5169773340201119
17,-6.459087200707472
18,-1.9224647920372998
2,1, 1, 1, 0, 9, 0.00,15.00,Tuesday
7,-9.725
8,629.8133241912386
9,1.0
10,278.97248314719988
11,1.0
12,278.97248314719988
13,629.8133241912386
14,-1.1852704558888863
15,8.227657622186296
16,0.07017140807056421
17,-5.20184321841441
18,-1.7972063798850287
2,1, 1, 1, 0, 9,15.00,30.00,Tuesday
7,-9.45
8,837.7116854113558
9,1.0
10,364.91995730569456
11,1.0
12,364.91995730569456
13,837.7116854113558
14,-0.8471546499220789
15,13.309185129546002
16,1.635174159119174
17,-3.9517194178117167
18,-1.636218662243777
2,1, 1, 1, 0, 9,30.00,45.00,Tuesday
7,-9.175
8,976.7624830576193
9,1.0
10,420.35879993239237
11,1.0
12,420.35879993239237
13,976.7624830576193
14,-0.6211408418853773
15,16.07042693793109
16,2.651767778086082
17,-3.1695937568015326
18,-1.4568628103919222
2,1, 1, 1, 0, 9,45.00,60.00,Tuesday
7,-8.9
8,1121.6146084510393
9,1.0
10,478.00138373643099
11,1.0
12,478.00138373643099
13,1121.6146084510393
14,-0.3542718571828225
15,19.066658123767927
16,3.683142511583924
17,-2.3693081480757884
18,-1.266688405607582
2,1, 1, 1, 0,10, 0.00,15.00,Tuesday
7,-8.350000000000002
8,1270.0269553388162
9,1.0
10,536.9185644770597
11,1.0
12,536.9185644770597
13,1270.0269553388162
14,-0.1501413793002026
15,20.18999384217906
16,4.7220461550966779
17,-1.5858262170912668
18,-1.061623374393401
2,1, 1, 1, 0,10,15.00,30.00,Tuesday
7,-7.800000000000001
8,1423.952062283466
9,1.0
10,598.0969199229219
11,1.0
12,598.0969199229219
13,1423.952062283466
14,0.07640134958120541
15,21.44724582886845
16,5.776345406007636
17,-0.8072112657116577
18,-0.8444535921915694
2,1, 1, 1, 0,10,30.00,45.00,Tuesday
7,-7.25
8,1526.2141510839877
9,1.0
10,637.6133352894237
11,1.0
12,637.6133352894237
13,1526.2141510839877
14,0.23809567453228895
15,21.51086301914776
16,6.49820180767972
17,-0.29199970914817188
18,-0.6289021157749237
2,1, 1, 1, 0,10,45.00,60.00,Tuesday
7,-6.7
8,1627.1474770805795
9,1.0
10,676.6412284283772
11,1.0
12,676.6412284283772
13,1627.1474770805795
14,0.41318001667737488
15,21.674148282596396
16,7.198843296854648
17,0.21666399182026908
18,-0.4228496545378006
2,1, 1, 1, 0,11, 0.00,15.00,Tuesday
7,-6.275
8,1726.3559791399826
9,1.0
10,715.0112779846514
11,1.0
12,715.0112779846514
13,1726.3559791399826
14,0.6661452282275492
15,23.771089318108193
16,7.985471429510483
17,0.9898324911835061
18,-0.22140819605834392
2,1, 1, 1, 0,11,15.00,30.00,Tuesday
7,-5.85
8,1823.2698116145473
9,1.0
10,752.5077794605232
11,1.0
12,752.5077794605232
13,1823.2698116145473
14,0.9039159860664957
15,25.70577545282408
16,8.754649375772658
17,1.7426392222010919
18,-0.019330604724983735
2,1, 1, 1, 0,11,30.00,45.00,Tuesday
7,-5.425
8,1796.527582854471
9,1.0
10,742.5988714321785
11,1.0
12,742.5988714321785
13,1796.527582854471
14,1.0299790940876808
15,25.557551789684355
16,8.843830989486833
17,1.9888075219321309
18,0.1692566687590257
2,1, 1, 1, 0,11,45.00,60.00,Tuesday
7,-5.0
8,1757.2302902542625
9,1.0
10,727.8169025450712
11,1.0
12,727.8169025450712
13,1757.2302902542625
14,1.1532886442014275
15,25.327670125943919
16,8.847252633809604
17,2.1922665867816706
18,0.33474900314114389
2,1, 1, 1, 0,12, 0.00,15.00,Tuesday
7,-4.575
8,1688.8915154248735
9,1.0
10,700.3759009170325
11,1.0
12,700.3759009170325
13,1688.8915154248735
14,1.2331631890275654
15,24.58454977521659
16,8.683924760288392
17,2.307098618346231
18,0.47314148826605248
2,1, 1, 1, 0,12,15.00,30.00,Tuesday
7,-4.15
8,1637.402928242804
9,1.0
10,681.6705029034473
11,1.0
12,681.6705029034473
13,1637.402928242804
14,1.3292518548887745
15,24.253524894624048
16,8.626184640904456
17,2.5055518629674227
18,0.590860906509285
2,1, 1, 1, 0,12,30.00,45.00,Tuesday
7,-3.7249999999999998
8,1436.3325328204419
9,1.0
10,602.01865277251
11,1.0
12,602.01865277251
13,1436.3325328204419
14,1.2415251155047072
15,21.225103816231369
16,7.701299635501812
17,2.0862028013477245
18,0.6723626022678444
2,1, 1, 1, 0,12,45.00,60.00,Tuesday
7,-3.3
8,1172.3264399988607
9,1.0
10,493.55004396206007
11,1.0
12,493.55004396206007
13,1172.3264399988607
14,1.071397920139314
15,17.04608746734591
16,6.30656801180271
17,1.3492391305941283
18,0.703337941628531
2,1, 1, 1, 0,13, 0.00,15.00,Tuesday
7,-3.0249999999999996
8,965.8676445104285
9,1.0
10,412.335026418112
11,1.0
12,412.335026418112
13,965.8676445104285
14,0.9548584009389675
15,14.20065221017175
16,5.234204250578273
17,0.8321480986757024
18,0.6937503641240486
2,1, 1, 1, 0,13,15.00,30.00,Tuesday
7,-2.75
8,705.6249663298465
9,1.0
10,305.94037763660148
11,1.0
12,305.94037763660148
13,705.6249663298465
14,0.73056694083145
15,10.026926271257695
16,3.7456317467349438
17,0.01413874021892525
18,0.6475906427238896
2,1, 1, 1, 0,13,30.00,45.00,Tuesday
7,-2.475
8,643.2935934547763
9,1.0
10,281.0763483922329
11,1.0
12,281.0763483922329
13,643.2935934547763
14,0.7188331950275005
15,9.512921885033734
16,3.465510291512601
17,0.05765851419982937
18,0.5937769292363683
2,1, 1, 1, 0,13,45.00,60.00,Tuesday
7,-2.2
8,582.2666563732777
9,1.0
10,256.7721209415886
11,1.0
12,256.7721209415886
13,582.2666563732777
14,0.6921039801610985
15,8.904881696301173
16,3.2175730880969697
17,0.11538963150019299
18,0.5507048290631997
2,1, 1, 1, 0,14, 0.00,15.00,Tuesday
7,-1.9250000000000003
8,475.0797112458438
9,1.0
10,210.73276284570657
11,1.0
12,210.73276284570657
13,475.0797112458438
14,0.6049383600919076
15,7.3557564769798049
16,2.6130358737891585
17,-0.098886411418448
18,0.5143074806468618
2,1, 1, 1, 0,14,15.00,30.00,Tuesday
7,-1.6500000000000002
8,421.0810450664391
9,1.0
10,189.38488290342594
11,1.0
12,189.38488290342594
13,421.0810450664391
14,0.5902149277312253
15,6.947752421051596
16,2.375068435346577
17,-0.05971248095931969
18,0.48429313389393138
2,1, 1, 1, 0,14,30.00,45.00,Tuesday
7,-1.375
8,401.774828289982
9,1.0
10,179.3940297802914
11,1.0
12,179.3940297802914
13,401.774828289982
14,0.5980488860892902
15,7.06593546328452
16,2.3437337717098218
17,0.12163745990812913
18,0.46207061858290346
2,1, 1, 1, 0,14,45.00,60.00,Tuesday
7,-1.1
8,382.12108825797437
9,1.0
10,169.43349014176136
11,1.0
12,169.43349014176136
13,382.12108825797437
14,0.6039771658107431
15,7.161995528416139
16,2.3094621974174744
17,0.29893360012101768
18,0.447742003267142
2,1, 1, 1, 0,15, 0.00,15.00,Tuesday
7,-1.1
8,401.91385134140628
9,1.0
10,178.15692317953907
11,1.0
12,178.15692317953907
13,401.91385134140628
14,0.6485796894043873
15,7.974711892991187
16,2.4679850896002337
17,0.4483805782388117
18,0.4430613433242541
2,1, 1, 1, 0,15,15.00,30.00,Tuesday
7,-1.1
8,377.40659100319177
9,1.0
10,166.40516310952945
11,1.0
12,166.40516310952945
13,377.40659100319177
14,0.620829138838525
15,7.610932082291334
16,2.2991189098778479
17,0.3471098995991042
18,0.4417453953796837
2,1, 1, 1, 0,15,30.00,45.00,Tuesday
7,-1.1
8,317.75596371098598
9,1.0
10,140.8967369711617
11,1.0
12,140.8967369711617
13,317.75596371098598
14,0.5414952732016631
15,6.402315263267078
16,1.8699895818193114
17,0.03383726818555033
18,0.43462695235576639
2,1, 1, 1, 0,15,45.00,60.00,Tuesday
7,-1.1
8,261.0934712331853
9,1.0
10,116.57355796743004
11,1.0
12,116.57355796743004
13,261.0934712331853
14,0.4616081629901534
15,5.189538506332256
16,1.437987203119178
17,-0.2866265480399761
18,0.41452620471707016
2,1, 1, 1, 0,16, 0.00,15.00,Tuesday
7,-1.1
8,206.91088787927186
9,1.0
10,93.14939272689483
11,1.0
12,93.14939272689483
13,206.91088787927186
14,0.38330087113339275
15,4.127888674102803
16,1.0375337707552035
17,-0.5466411319775375
18,0.38169877518401587
2,1, 1, 1, 0,16,15.00,30.00,Tuesday
7,-1.1
8,128.24394957662509
9,1.0
10,57.94047897402063
11,1.0
12,57.94047897402063
13,128.24394957662509
14,0.2185585737048047
15,1.9796556180832843
16,0.3720750438499181
17,-1.0299384612060294
18,0.33422389941360866
2,1, 1, 1, 0,16,30.00,45.00,Tuesday
7,-1.1
8,99.28426277067597
9,1.0
10,45.38251793443488
11,1.0
12,45.38251793443488
13,99.28426277067597
14,0.17702347041978579
15,1.372998606299391
16,0.10594832077913452
17,-1.19261644557389
18,0.27922092029658748
2,1, 1, 1, 0,16,45.00,60.00,Tuesday
7,-1.1
8,69.22193753677786
9,1.0
10,32.02625108222755
11,1.0
12,32.02625108222755
13,69.22193753677786
14,0.09603300009452826
15,0.4942092409248305
16,-0.15952752993416653
17,-1.379347105828856
18,0.22194134575651768
2,1, 1, 1, 0,17, 0.00,15.00,Tuesday
7,-1.1
8,37.939612009912227
9,1.0
10,17.762198626050539
11,1.0
12,17.762198626050539
13,37.939612009912227
14,-0.013628476992138227
15,-0.7759431635427355
16,-0.4918924589147764
17,-1.6843843788573168
18,0.15969397168773004
2,1, 1, 1, 0,17,15.00,30.00,Tuesday
7,-1.1
8,0.0
9,0.0
10,0.0
11,0.0
12,0.0
13,0.0
14,-0.1705482363892728
15,-2.6209098126120589
16,-0.8854416992758161
17,-2.0319121494325147
18,0.08263217789192919
2,1, 1, 1, 0,17,30.00,45.00,Tuesday
7,-1.1
8,0.0
9,0.0
10,0.0
11,0.0
12,0.0
13,0.0
14,-0.20590785088783643
15,-2.764171742154488
16,-0.9678922630051829
17,-2.105589828381426
18,0.0008769779870022125
2,1, 1, 1, 0,17,45.00,60.00,Tuesday
7,-1.1
8,0.0
9,0.0
10,0.0
11,0.0
12,0.0
13,0.0
14,-0.2589403012216421
15,-2.9701605024727519
16,-1.0264838858959707
17,-2.178977518600732
18,-0.07384710711138995
2,1, 1, 1, 0,18, 0.00,15.00,Tuesday
7,-1.25
8,0.0
9,0.0
10,0.0
11,0.0
12,0.0
13,0.0
14,-0.3020113353983725
15,-3.1161189945351457
16,-1.1108434959852503
17,-2.308233074281702
18,-0.13540526975140788
2,1, 1, 1, 0,18,15.00,30.00,Tuesday
7,-1.4
8,0.0
9,0.0
10,0.0
11,0.0
12,0.0
13,0.0
14,-0.3407407386289186
15,-3.2685622319209499
16,-1.1853412519214999
17,-2.4284374350771715
18,-0.18440947017352525
2,1, 1, 1, 0,18,30.00,45.00,Tuesday
7,-1.5499999999999999
8,0.0
9,0.0
10,0.0
11,0.0
12,0.0
13,0.0
14,-0.3763609138738044
15,-3.420291204968437
16,-1.2565885763272036
17,-2.547576802494973
18,-0.2244032963211715
2,1, 1, 1, 0,18,45.00,60.00,Tuesday
7,-1.7
8,0.0
9,0.0
10,0.0
11,0.0
12,0.0
13,0.0
14,-0.40920220813586968
15,-3.572065934539369
16,-1.323506700019152
17,-2.659514628495913
18,-0.25882330222817448
2,1, 1, 1, 0,19, 0.00,15.00,Tuesday
7,-1.825
8,0.0
9,0.0
10,0.0
11,0.0
12,0.0
13,0.0
14,-0.41164382295284077
15,-3.4017776675016337
16,-1.3440116272722663
17,-2.6768561007978635
18,-0.2860224854245241
2,1, 1, 1, 0,19,15.00,30.00,Tuesday
7,-1.9500000000000002
8,0.0
9,0.0
10,0.0
11,0.0
12,0.0
13,0.0
14,-0.41469019189130237
15,-3.3156020816563358
16,-1.3642531569998938
17,-2.705370730932259
18,-0.3047737537343325
2,1, 1, 1, 0,19,30.00,45.00,Tuesday
7,-2.075
8,0.0
9,0.0
10,0.0
11,0.0
12,0.0
13,0.0
14,-0.42276671644113447
15,-3.3841244117215649
16,-1.4038899013945639
17,-2.7806401561701934
18,-0.3170246567352579
2,1, 1, 1, 0,19,45.00,60.00,Tuesday
7,-2.2
8,0.0
9,0.0
10,0.0
11,0.0
12,0.0
13,0.0
14,-0.42737879957475197
15,-3.344634057158421
16,-1.4253098358366288
17,-2.825940799729551
18,-0.3257513051494339
2,1, 1, 1, 0,20, 0.00,15.00,Tuesday
7,-1.9250000000000003
8,0.0
9,0.0
10,0.0
11,0.0
12,0.0
13,0.0
14,-0.4172529245159729
15,-3.039033280325436
16,-1.3215789487384769
17,-2.6208971525367135
18,-0.33102438035152129
2,1, 1, 1, 0,20,15.00,30.00,Tuesday
7,-1.6500000000000002
8,0.0
9,0.0
10,0.0
11,0.0
12,0.0
13,0.0
14,-0.4041588525661851
15,-2.7367807166792446
16,-1.2302126953147763
17,-2.3895022879370346
18,-0.33272845802382397
2,1, 1, 1, 0,20,30.00,45.00,Tuesday
7,-1.375
8,0.0
9,0.0
10,0.0
11,0.0
12,0.0
13,0.0
14,-0.38922128746787046
15,-2.4361212835667698
16,-1.131294282214526
17,-2.163943325346054
18,-0.3312435363103512
2,1, 1, 1, 0,20,45.00,60.00,Tuesday
7,-1.1
8,0.0
9,0.0
10,0.0
11,0.0
12,0.0
13,0.0
14,-0.37132265473583739
15,-2.1368903452612244
16,-1.02958009174273
17,-1.9365877096204259
18,-0.327129152688446
2,1, 1, 1, 0,21, 0.00,15.00,Tuesday
7,-1.25
8,0.0
9,0.0
10,0.0
11,0.0
12,0.0
13,0.0
14,-0.4034409799965963
15,-2.436415170536519
16,-1.114486501674378
17,-2.0974585187793766
18,-0.3265954842243055
2,1, 1, 1, 0,21,15.00,30.00,Tuesday
7,-1.4
8,0.0
9,0.0
10,0.0
11,0.0
12,0.0
13,0.0
14,-0.4378790359090014
15,-2.662335892373117
16,-1.1841525366476163
17,-2.2370365385621087
18,-0.3349170057290279
2,1, 1, 1, 0,21,30.00,45.00,Tuesday
7,-1.5499999999999999
8,0.0
9,0.0
10,0.0
11,0.0
12,0.0
13,0.0
14,-0.4853630831425859
15,-3.0298852309731836
16,-1.2778461502161918
17,-2.4187604480494544
18,-0.3543319644243705
2,1, 1, 1, 0,21,45.00,60.00,Tuesday
7,-1.7
8,0.0
9,0.0
10,0.0
11,0.0
12,0.0
13,0.0
14,-0.5376919943941848
15,-3.5081049808261075
16,-1.3836945931893184
17,-2.6315981966505435
18,-0.3836390166437394
2,1, 1, 1, 0,22, 0.00,15.00,Tuesday
7,-1.5499999999999999
8,0.0
9,0.0
10,0.0
11,0.0
12,0.0
13,0.0
14,-0.5091531093459746
15,-2.9890012833858505
16,-1.3046443107496089
17,-2.440149579252193
18,-0.4085561746840536
2,1, 1, 1, 0,22,15.00,30.00,Tuesday
7,-1.4
8,0.0
9,0.0
10,0.0
11,0.0
12,0.0
13,0.0
14,-0.49038704546701036
15,-2.6375512639586899
16,-1.2224114984827566
17,-2.2583112838721037
18,-0.4209471098571894
2,1, 1, 1, 0,22,30.00,45.00,Tuesday
7,-1.25
8,0.0
9,0.0
10,0.0
11,0.0
12,0.0
13,0.0
14,-0.4739910124584429
15,-2.407794771018542
16,-1.1583863244342184
17,-2.114669624529995
18,-0.4222532529418426
2,1, 1, 1, 0,22,45.00,60.00,Tuesday
7,-1.1
8,0.0
9,0.0
10,0.0
11,0.0
12,0.0
13,0.0
14,-0.45377584504640947
15,-2.107891818522144
16,-1.072292697111152
17,-1.936323004868541
18,-0.4169729727237537
2,1, 1, 1, 0,23, 0.00,15.00,Tuesday
7,-1.25
8,0.0
9,0.0
10,0.0
11,0.0
12,0.0
13,0.0
14,-0.4871516375795728
15,-2.4123835509462276
16,-1.1960531065118403
17,-2.1818213789825906
18,-0.4146792096541484
2,1, 1, 1, 0,23,15.00,30.00,Tuesday
7,-1.4
8,0.0
9,0.0
10,0.0
11,0.0
12,0.0
13,0.0
14,-0.5181825113326025
15,-2.716816906713222
16,-1.3234632349575577
17,-2.4483191062575999
18,-0.42146249379717468
2,1, 1, 1, 0,23,30.00,45.00,Tuesday
7,-1.5499999999999999
8,0.0
9,0.0
10,0.0
11,0.0
12,0.0
13,0.0
14,-0.5539703208925063
15,-3.0218806048385189
16,-1.4506057184961492
17,-2.7152623672197935
18,-0.4378311745887131
2,1, 1, 1, 0,23,45.00,60.00,Tuesday
7,-1.7
8,0.0
9,0.0
10,0.0
11,0.0
12,0.0
13,0.0
14,-0.5919518756014142
15,-3.327222666947796
16,-1.5804253210668549
17,-2.983130384048593
18,-0.4617016322151174
2,1, 1, 1, 0,24, 0.00,15.00,Tuesday
7,-1.7
8,0.0
9,0.0
10,0.0
11,0.0
12,0.0
13,0.0
14,-0.6105982021773095
15,-3.3806681134133838
16,-1.617198777578892
17,-3.0394366993407404
18,-0.4875105714044149
2,1, 1, 1, 0,24,15.00,30.00,Tuesday
7,-1.7
8,0.0
9,0.0
10,0.0
11,0.0
12,0.0
13,0.0
14,-0.632355822268907
15,-3.435068372125785
16,-1.651837030983927
17,-3.093777770817951
18,-0.5117818925977188
2,1, 1, 1, 0,24,30.00,45.00,Tuesday
7,-1.7
8,0.0
9,0.0
10,0.0
11,0.0
12,0.0
13,0.0
14,-0.6536675179524495
15,-3.489330382568468
16,-1.6871798779608867
17,-3.14831033348662
18,-0.5339425228804077
2,1, 1, 1, 0,24,45.00,60.00,Tuesday
7,-1.7
8,0.0
9,0.0
10,0.0
11,0.0
12,0.0
13,0.0
14,-0.6744702149915635
15,-3.5435868248290487
16,-1.7220585166849674
17,-3.202594875707746
18,-0.554636721357585
End of Data
 Number of Records Written=        1152
