Program Version,EnergyPlus, Version 9.5.0-de239b2e5f, YMD=2023.02.16 21:09
1,5,Environment Title[],Latitude[deg],Longitude[deg],Time Zone[],Elevation[m]
2,8,Day of Simulation[],Month[],Day of Month[],DST Indicator[1=yes 0=no],Hour[],StartMinute[],EndMinute[],DayType
3,5,Cumulative Day of Simulation[],Month[],Day of Month[],DST Indicator[1=yes 0=no],DayType  ! When Daily Report Variables Requested
4,2,Cumulative Days of Simulation[],Month[]  ! When Monthly Report Variables Requested
5,1,Cumulative Days of Simulation[] ! When Run Period Report Variables Requested
6,1,Calendar Year of Simulation[] ! When Annual Report Variables Requested
7,1,Environment,Site Outdoor Air Drybulb Temperature [C] !TimeStep
8,1,ZONE ONE,Zone Windows Total Transmitted Solar Radiation Rate [W] !TimeStep
9,1,ZN001:WALL001,Surface Outside Face Sunlit Fraction [] !TimeStep
10,1,ZN001:WALL001,Surface Outside Face Incident Solar Radiation Rate per Area [W/m2] !TimeStep
11,1,ZN001:WALL001:WIN001,Surface Outside Face Sunlit Fraction [] !TimeStep
12,1,ZN001:WALL001:WIN001,Surface Outside Face Incident Solar Radiation Rate per Area [W/m2] !TimeStep
13,1,ZN001:WALL001:WIN001,Surface Window Transmitted Solar Radiation Rate [W] !TimeStep
14,1,ZN001:WALL001,Surface Inside Face Temperature [C] !TimeStep
15,1,ZN001:WALL001,Surface Outside Face Temperature [C] !TimeStep
16,1,ZN001:WALL001:WIN001,Surface Inside Face Temperature [C] !TimeStep
17,1,ZN001:WALL001:WIN001,Surface Outside Face Temperature [C] !TimeStep
18,1,ZONE ONE,Zone Mean Air Temperature [C] !TimeStep
End of Data Dictionary
1,RUN PERIOD 1,  41.98, -87.92,  -6.00, 201.00
2,1, 1, 1, 0, 1, 0.00,15.00,Tuesday
7,-4.324999999999999
8,0.0
9,0.0
10,0.0
11,0.0
12,0.0
13,0.0
14,7.741161569680338
15,-5.8629906372676079
16,5.639307057274891
17,-4.484670035097793
18,8.254396032430213
2,1, 1, 1, 0, 1,15.00,30.00,Tuesday
7,-6.949999999999999
8,0.0
9,0.0
10,0.0
11,0.0
12,0.0
13,0.0
14,7.559046532489026
15,-8.330040519397392
16,5.12219641843717
17,-6.638345541017031
18,8.154665325232486
2,1, 1, 1, 0, 1,30.00,45.00,Tuesday
7,-9.575
8,0.0
9,0.0
10,0.0
11,0.0
12,0.0
13,0.0
14,7.357616989589835
15,-10.804979383607563
16,4.5985211037988169
17,-8.798531388128538
18,8.024830408467839
2,1, 1, 1, 0, 1,45.00,60.00,Tuesday
7,-12.2
8,0.0
9,0.0
10,0.0
11,0.0
12,0.0
13,0.0
14,7.140973153521047
15,-13.286549927888484
16,4.059766918566993
17,-10.966211881794152
18,7.874238762795511
2,1, 1, 1, 0, 2, 0.00,15.00,Tuesday
7,-12.075
8,0.0
9,0.0
10,0.0
11,0.0
12,0.0
13,0.0
14,7.07000105277434
15,-13.087208742688502
16,3.9743601921280744
17,-10.800192205714723
18,7.738038991801021
2,1, 1, 1, 0, 2,15.00,30.00,Tuesday
7,-11.95
8,0.0
9,0.0
10,0.0
11,0.0
12,0.0
13,0.0
14,6.985780240011628
15,-12.910208423037334
16,3.929257786477365
17,-10.647316852404402
18,7.63237265353549
2,1, 1, 1, 0, 2,30.00,45.00,Tuesday
7,-11.825
8,0.0
9,0.0
10,0.0
11,0.0
12,0.0
13,0.0
14,6.918056229354173
15,-12.732088620635123
16,3.8892978429586266
17,-10.49423817883735
18,7.551898533256233
2,1, 1, 1, 0, 2,45.00,60.00,Tuesday
7,-11.7
8,0.0
9,0.0
10,0.0
11,0.0
12,0.0
13,0.0
14,6.861000941182134
15,-12.55405488161821
16,3.8618228068934288
17,-10.33912462761856
18,7.485999030591707
2,1, 1, 1, 0, 3, 0.00,15.00,Tuesday
7,-11.549999999999999
8,0.0
9,0.0
10,0.0
11,0.0
12,0.0
13,0.0
14,6.805388932088891
15,-12.426904715945544
16,3.840423808831247
17,-10.190064611862795
18,7.426115583378906
2,1, 1, 1, 0, 3,15.00,30.00,Tuesday
7,-11.399999999999999
8,0.0
9,0.0
10,0.0
11,0.0
12,0.0
13,0.0
14,6.752784810546494
15,-12.30107586351824
16,3.8237767707023524
17,-10.050181838189076
18,7.368175958785676
2,1, 1, 1, 0, 3,30.00,45.00,Tuesday
7,-11.25
8,0.0
9,0.0
10,0.0
11,0.0
12,0.0
13,0.0
14,6.7008548222804109
15,-12.176711321489549
16,3.803010415463234
17,-9.891549749797719
18,7.310985754020313
2,1, 1, 1, 0, 3,45.00,60.00,Tuesday
7,-11.1
8,0.0
9,0.0
10,0.0
11,0.0
12,0.0
13,0.0
14,6.64943365696316
15,-12.053871418720125
16,3.788546949218585
17,-9.750796248263669
18,7.254529508818602
2,1, 1, 1, 0, 4, 0.00,15.00,Tuesday
7,-11.1
8,0.0
9,0.0
10,0.0
11,0.0
12,0.0
13,0.0
14,6.5942868747689309
15,-12.026930398932232
16,3.7304794951188
17,-9.7757293225161
18,7.198049770525441
2,1, 1, 1, 0, 4,15.00,30.00,Tuesday
7,-11.1
8,0.0
9,0.0
10,0.0
11,0.0
12,0.0
13,0.0
14,6.53958697236898
15,-12.001021527162438
16,3.6769016535922676
17,-9.807007452668529
18,7.141240062862259
2,1, 1, 1, 0, 4,30.00,45.00,Tuesday
7,-11.1
8,0.0
9,0.0
10,0.0
11,0.0
12,0.0
13,0.0
14,6.484755856750924
15,-11.976574824630728
16,3.623911648036483
17,-9.837825398842142
18,7.084205399773703
2,1, 1, 1, 0, 4,45.00,60.00,Tuesday
7,-11.1
8,0.0
9,0.0
10,0.0
11,0.0
12,0.0
13,0.0
14,6.429894630107276
15,-11.953463275077452
16,3.5711041519389257
17,-9.867702985699339
18,7.027134651424518
2,1, 1, 1, 0, 5, 0.00,15.00,Tuesday
7,-10.975
8,0.0
9,0.0
10,0.0
11,0.0
12,0.0
13,0.0
14,6.380529980500832
15,-11.831615164582628
16,3.547649274780042
17,-9.77686588402662
18,6.971125050091928
2,1, 1, 1, 0, 5,15.00,30.00,Tuesday
7,-10.85
8,0.0
9,0.0
10,0.0
11,0.0
12,0.0
13,0.0
14,6.331370051595456
15,-11.709829723563246
16,3.5228269133091318
17,-9.678075128693536
18,6.916625184672842
2,1, 1, 1, 0, 5,30.00,45.00,Tuesday
7,-10.725
8,0.0
9,0.0
10,0.0
11,0.0
12,0.0
13,0.0
14,6.28320046196549
15,-11.588022593687616
16,3.498385852166848
17,-9.578567965024718
18,6.863424384079576
2,1, 1, 1, 0, 5,45.00,60.00,Tuesday
7,-10.6
8,0.0
9,0.0
10,0.0
11,0.0
12,0.0
13,0.0
14,6.235855854589402
15,-11.466225175508045
16,3.4747556816540738
17,-9.478881170261957
18,6.811173345172856
2,1, 1, 1, 0, 6, 0.00,15.00,Tuesday
7,-10.6
8,0.0
9,0.0
10,0.0
11,0.0
12,0.0
13,0.0
14,6.181738369140595
15,-11.467268980939018
16,3.4274441987989805
17,-9.479223007550559
18,6.758352558436405
2,1, 1, 1, 0, 6,15.00,30.00,Tuesday
7,-10.6
8,0.0
9,0.0
10,0.0
11,0.0
12,0.0
13,0.0
14,6.128255820419937
15,-11.468270642351732
16,3.3806108062630075
17,-9.486301963419692
18,6.704286092772145
2,1, 1, 1, 0, 6,30.00,45.00,Tuesday
7,-10.6
8,0.0
9,0.0
10,0.0
11,0.0
12,0.0
13,0.0
14,6.0742631311491899
15,-11.469313453591904
16,3.3339126183278156
17,-9.493897391990459
18,6.649248739218578
2,1, 1, 1, 0, 6,45.00,60.00,Tuesday
7,-10.6
8,0.0
9,0.0
10,0.0
11,0.0
12,0.0
13,0.0
14,6.0199849078926699
15,-11.470353877216902
16,3.2868574776617267
17,-9.501606419376288
18,6.593736821283178
2,1, 1, 1, 0, 7, 0.00,15.00,Tuesday
7,-10.6
8,0.0
9,0.0
10,0.0
11,0.0
12,0.0
13,0.0
14,5.967640978903393
15,-11.448063194733616
16,3.235314657272397
17,-9.526894006227849
18,6.538424733315513
2,1, 1, 1, 0, 7,15.00,30.00,Tuesday
7,-10.6
8,0.0
9,0.0
10,0.0
11,0.0
12,0.0
13,0.0
14,5.915210503516247
15,-11.42692699098403
16,3.1854393027364269
17,-9.552296957510976
18,6.483649816936238
2,1, 1, 1, 0, 7,30.00,45.00,Tuesday
7,-10.6
8,0.0
9,0.0
10,0.0
11,0.0
12,0.0
13,0.0
14,5.863100272393632
15,-11.406868432567939
16,3.1359395759644714
17,-9.576964636897344
18,6.429379040079183
2,1, 1, 1, 0, 7,45.00,60.00,Tuesday
7,-10.6
8,0.0
9,0.0
10,0.0
11,0.0
12,0.0
13,0.0
14,5.811306915025781
15,-11.387823646976918
16,3.086900950537597
17,-9.60079770202708
18,6.375487461182663
2,1, 1, 1, 0, 8, 0.00,15.00,Tuesday
7,-10.45
8,0.0
9,0.0
10,0.0
11,0.0
12,0.0
13,0.0
14,5.758973718956224
15,-11.337922955486079
16,3.0565325257970246
17,-9.549894195272657
18,6.321572052503822
2,1, 1, 1, 0, 8,15.00,30.00,Tuesday
7,-10.3
8,181.53280301124716
9,1.0
10,22.819555959623899
11,1.0
12,22.819555959623899
13,181.53280301124716
14,5.8303360321054449
15,-9.66405430248306
16,3.33313015996265
17,-9.237243555592955
18,6.286809281266836
2,1, 1, 1, 0, 8,30.00,45.00,Tuesday
7,-10.15
8,891.3278823594253
9,1.0
10,109.75755355442667
11,1.0
12,109.75755355442667
13,891.3278823594253
14,6.2390507754337929
15,-3.2894515672582438
16,4.545219982261301
17,-8.181013695610205
18,6.324859815233433
2,1, 1, 1, 0, 8,45.00,60.00,Tuesday
7,-10.0
8,1620.7840671873826
9,1.0
10,195.8764694434918
11,1.0
12,195.8764694434918
13,1620.7840671873826
14,6.748384707976107
15,3.1816420486877754
16,5.904333602829411
17,-7.121533292557842
18,6.4434298646443939
2,1, 1, 1, 0, 9, 0.00,15.00,Tuesday
7,-9.725
8,2347.727724178928
9,1.0
10,278.97248314719988
11,1.0
12,278.97248314719988
13,2347.727724178928
14,7.212692421125771
15,8.367172858726383
16,7.31617225549337
17,-6.1817850404247
18,6.618056985409725
2,1, 1, 1, 0, 9,15.00,30.00,Tuesday
7,-9.45
8,3114.0096416305138
9,1.0
10,364.91995730569456
11,1.0
12,364.91995730569456
13,3114.0096416305138
14,7.671639703527773
15,13.440120626685382
16,8.67949099927489
17,-5.234609372394971
18,6.839619602539293
2,1, 1, 1, 0, 9,30.00,45.00,Tuesday
7,-9.175
8,3620.9788466187658
9,1.0
10,420.35879993239237
11,1.0
12,420.35879993239237
13,3620.9788466187658
14,8.001253137687366
15,16.19706259807844
16,9.610278127171796
17,-4.650239153724328
18,7.087765514054589
2,1, 1, 1, 0, 9,45.00,60.00,Tuesday
7,-8.9
8,4147.254307348187
9,1.0
10,478.00138373643099
11,1.0
12,478.00138373643099
13,4147.254307348187
14,8.387387922756045
15,19.191124743448243
16,10.531648430656844
17,-4.044351713399692
18,7.351468393191281
2,1, 1, 1, 0,10, 0.00,15.00,Tuesday
7,-8.350000000000002
8,4684.648484144343
9,1.0
10,536.9185644770597
11,1.0
12,536.9185644770597
13,4684.648484144343
14,8.7225690045218
15,20.305439626895575
16,11.491719560135266
17,-3.363302344677436
18,7.630696582792467
2,1, 1, 1, 0,10,15.00,30.00,Tuesday
7,-7.800000000000001
8,5240.608015714945
9,1.0
10,598.0969199229219
11,1.0
12,598.0969199229219
13,5240.608015714945
14,9.088360345490955
15,21.55603448358998
16,12.467046935247709
17,-2.671918140088053
18,7.760144188417259
2,1, 1, 1, 0,10,30.00,45.00,Tuesday
7,-7.25
8,5605.323921093528
9,1.0
10,637.6133352894237
11,1.0
12,637.6133352894237
13,5605.323921093528
14,9.334621976023165
15,21.612277641427864
16,13.168519765675399
17,-2.1942740657501647
18,8.01166389448669
2,1, 1, 1, 0,10,45.00,60.00,Tuesday
7,-6.7
8,5964.667754902514
9,1.0
10,676.6412284283772
11,1.0
12,676.6412284283772
13,5964.667754902514
14,9.573989895187948
15,21.769544929760884
16,13.807100322938311
17,-1.711314345559913
18,8.196849447258807
2,1, 1, 1, 0,11, 0.00,15.00,Tuesday
7,-6.275
8,6317.474208179253
9,1.0
10,715.0112779846514
11,1.0
12,715.0112779846514
13,6317.474208179253
14,9.959917328954742
15,23.868900914650327
16,14.500338766175219
17,-1.027348709782018
18,8.632158930339508
2,1, 1, 1, 0,11,15.00,30.00,Tuesday
7,-5.85
8,6661.976035385195
9,1.0
10,752.5077794605232
11,1.0
12,752.5077794605232
13,6661.976035385195
14,10.397066446506433
15,25.805949502001768
16,15.247972340474235
17,-0.3572695079900541
18,9.041272745972793
2,1, 1, 1, 0,11,30.00,45.00,Tuesday
7,-5.425
8,6559.590639127897
9,1.0
10,742.5988714321785
11,1.0
12,742.5988714321785
13,6559.590639127897
14,10.661920036573337
15,25.657769490461843
16,15.474836973901063
17,-0.044108420738098178
18,9.413823085269368
2,1, 1, 1, 0,11,45.00,60.00,Tuesday
7,-5.0
8,6413.2938485147019
9,1.0
10,727.8169025450712
11,1.0
12,727.8169025450712
13,6413.2938485147019
14,10.911033667654318
15,25.429317834954856
16,15.600564655483709
17,0.2401584651122448
18,9.739931255620114
2,1, 1, 1, 0,12, 0.00,15.00,Tuesday
7,-4.575
8,6161.707695169875
9,1.0
10,700.3759009170325
11,1.0
12,700.3759009170325
13,6161.707695169875
14,11.087772344552669
15,24.687227171545485
16,15.574107470301897
17,0.47632698252800767
18,10.01889178996008
2,1, 1, 1, 0,12,15.00,30.00,Tuesday
7,-4.15
8,5975.124016097185
9,1.0
10,681.6705029034473
11,1.0
12,681.6705029034473
13,5975.124016097185
14,11.253026271838057
15,24.356533032577884
16,15.595832240054506
17,0.7724105679304785
18,10.262215800384622
2,1, 1, 1, 0,12,30.00,45.00,Tuesday
7,-3.7249999999999998
8,5245.661247450245
9,1.0
10,602.01865277251
11,1.0
12,602.01865277251
13,5245.661247450245
14,11.195346194199662
15,21.329225557103606
16,14.942909640213884
17,0.6391157677732622
18,10.446359689972633
2,1, 1, 1, 0,12,45.00,60.00,Tuesday
7,-3.3
8,4284.197434080928
9,1.0
10,493.55004396206007
11,1.0
12,493.55004396206007
13,4284.197434080928
14,11.000693365977068
15,17.151213037943174
16,13.84860024958573
17,0.27720199387727009
18,10.543805275900067
2,1, 1, 1, 0,13, 0.00,15.00,Tuesday
7,-3.0249999999999996
8,3537.445593115435
9,1.0
10,412.335026418112
11,1.0
12,412.335026418112
13,3537.445593115435
14,10.866465000544818
15,14.30792854780232
16,12.961802499329054
17,0.04105842283831862
18,10.571788915863325
2,1, 1, 1, 0,13,15.00,30.00,Tuesday
7,-2.75
8,2590.853186043415
9,1.0
10,305.94037763660148
11,1.0
12,305.94037763660148
13,2590.853186043415
14,10.546264312789225
15,10.135205303990789
16,11.72615600956442
17,-0.40016097347040616
18,10.540748298736267
2,1, 1, 1, 0,13,30.00,45.00,Tuesday
7,-2.475
8,2365.357246120335
9,1.0
10,281.0763483922329
11,1.0
12,281.0763483922329
13,2365.357246120335
14,10.513714425755749
15,9.621331163654896
16,11.404072815844359
17,-0.253789786816526
18,10.491770190018082
2,1, 1, 1, 0,13,45.00,60.00,Tuesday
7,-2.2
8,2144.5586982865008
9,1.0
10,256.7721209415886
11,1.0
12,256.7721209415886
13,2144.5586982865008
14,10.479111512143258
15,9.016872329395428
16,11.16719375314483
17,-0.08332402649455162
18,10.449642796684895
2,1, 1, 1, 0,14, 0.00,15.00,Tuesday
7,-1.9250000000000003
8,1751.8863449049696
9,1.0
10,210.73276284570657
11,1.0
12,210.73276284570657
13,1751.8863449049696
14,10.324909893039683
15,7.4693706273576689
16,10.61812210578114
17,-0.1258099293177679
18,10.411352464292453
2,1, 1, 1, 0,14,15.00,30.00,Tuesday
7,-1.6500000000000002
8,1556.2405744298179
9,1.0
10,189.38488290342594
11,1.0
12,189.38488290342594
13,1556.2405744298179
14,10.29287170263036
15,7.069328588948192
16,10.33401189403719
17,0.023333100425816157
18,10.37677828314802
2,1, 1, 1, 0,14,30.00,45.00,Tuesday
7,-1.375
8,1484.2130869693643
9,1.0
10,179.3940297802914
11,1.0
12,179.3940297802914
13,1484.2130869693643
14,10.280045142901047
15,7.192445135220215
16,10.264003615334446
17,0.2679472038280437
18,10.347484058659909
2,1, 1, 1, 0,14,45.00,60.00,Tuesday
7,-1.1
8,1411.362724961817
9,1.0
10,169.43349014176136
11,1.0
12,169.43349014176136
13,1411.362724961817
14,10.263766354662407
15,7.29288319502342
16,10.186593883009892
17,0.5112038332438829
18,10.32292436782734
2,1, 1, 1, 0,15, 0.00,15.00,Tuesday
7,-1.1
8,1485.5478120977
9,1.0
10,178.15692317953907
11,1.0
12,178.15692317953907
13,1485.5478120977
14,10.324868842144176
15,8.111271372365195
16,10.31576182828212
17,0.6367064428089861
18,10.30672797117049
2,1, 1, 1, 0,15,15.00,30.00,Tuesday
7,-1.1
8,1395.6313707719838
9,1.0
10,166.40516310952945
11,1.0
12,166.40516310952945
13,1395.6313707719838
14,10.271826104145154
15,7.749576497726423
16,10.174811873319186
17,0.5879264590579965
18,10.293294504145914
2,1, 1, 1, 0,15,30.00,45.00,Tuesday
7,-1.1
8,1176.7712955684957
9,1.0
10,140.8967369711617
11,1.0
12,140.8967369711617
13,1176.7712955684957
14,10.147845600468683
15,6.5426691027334729
16,9.792953339717088
17,0.38084344086490776
18,10.27023202860502
2,1, 1, 1, 0,15,45.00,60.00,Tuesday
7,-1.1
8,968.3868714642877
9,1.0
10,116.57355796743004
11,1.0
12,116.57355796743004
13,968.3868714642877
14,10.038637073526225
15,5.340774290804784
16,9.420575899508322
17,0.1720290275446814
18,10.227196051275186
2,1, 1, 1, 0,16, 0.00,15.00,Tuesday
7,-1.1
8,768.567072310748
9,1.0
10,93.14939272689483
11,1.0
12,93.14939272689483
13,768.567072310748
14,9.927362169289426
15,4.291529077657915
16,9.080909864205694
17,0.04971757228838669
18,10.162868833082426
2,1, 1, 1, 0,16,15.00,30.00,Tuesday
7,-1.1
8,477.1278311199492
9,1.0
10,57.94047897402063
11,1.0
12,57.94047897402063
13,477.1278311199492
14,9.72477217219184
15,2.1713495612017348
16,8.57164446551792
17,-0.21588753013020324
18,10.071598612800852
2,1, 1, 1, 0,16,30.00,45.00,Tuesday
7,-1.1
8,369.92992568872679
9,1.0
10,45.38251793443488
11,1.0
12,45.38251793443488
13,369.92992568872679
14,9.640959327384227
15,1.564896486788209
16,8.336257479667779
17,-0.25660093304259137
18,9.969560357312595
2,1, 1, 1, 0,16,45.00,60.00,Tuesday
7,-1.1
8,258.23559610460418
9,1.0
10,32.02625108222755
11,1.0
12,32.02625108222755
13,258.23559610460418
14,9.51879473947353
15,0.7068687642108702
16,8.119861350766996
17,-0.29942708151276067
18,9.870082159789242
2,1, 1, 1, 0,17, 0.00,15.00,Tuesday
7,-1.1
8,141.6418627784957
9,1.0
10,17.762198626050539
11,1.0
12,17.762198626050539
13,141.6418627784957
14,9.372963333069386
15,-0.5373093921008355
16,7.853589064413313
17,-0.45700372204538555
18,9.771755337874602
2,1, 1, 1, 0,17,15.00,30.00,Tuesday
7,-1.1
8,0.0
9,0.0
10,0.0
11,0.0
12,0.0
13,0.0
14,9.177886127364726
15,-2.37117224995484
16,7.5204201405381358
17,-0.7204394627119655
18,9.661584988703974
2,1, 1, 1, 0,17,30.00,45.00,Tuesday
7,-1.1
8,0.0
9,0.0
10,0.0
11,0.0
12,0.0
13,0.0
14,9.116259991291285
15,-2.503817701596866
16,7.4217297171378509
17,-0.709981505569317
18,9.554308707891684
2,1, 1, 1, 0,17,45.00,60.00,Tuesday
7,-1.1
8,0.0
9,0.0
10,0.0
11,0.0
12,0.0
13,0.0
14,9.038979550301823
15,-2.688933609644004
16,7.367788115243286
17,-0.6852280437291256
18,9.463773253034033
2,1, 1, 1, 0,18, 0.00,15.00,Tuesday
7,-1.25
8,0.0
9,0.0
10,0.0
11,0.0
12,0.0
13,0.0
14,8.97327738269303
15,-2.8375217139348498
16,7.277594504805336
17,-0.8308931312207051
18,9.390576944270551
2,1, 1, 1, 0,18,15.00,30.00,Tuesday
7,-1.4
8,0.0
9,0.0
10,0.0
11,0.0
12,0.0
13,0.0
14,8.913175430369318
15,-2.9899567271682576
16,7.201080592145104
17,-0.966274917745011
18,9.329202996604728
2,1, 1, 1, 0,18,30.00,45.00,Tuesday
7,-1.5499999999999999
8,0.0
9,0.0
10,0.0
11,0.0
12,0.0
13,0.0
14,8.857381387058873
15,-3.14201677564618
16,7.129144424991409
17,-1.1011035512918853
18,9.274114889962985
2,1, 1, 1, 0,18,45.00,60.00,Tuesday
7,-1.7
8,0.0
9,0.0
10,0.0
11,0.0
12,0.0
13,0.0
14,8.803595459432423
15,-3.294242299028296
16,7.060183407319414
17,-1.2353257653765014
18,9.221913042729933
2,1, 1, 1, 0,19, 0.00,15.00,Tuesday
7,-1.825
8,0.0
9,0.0
10,0.0
11,0.0
12,0.0
13,0.0
14,8.773689584410305
15,-3.1559241244722155
16,6.9873682201332489
17,-1.3898339020695403
18,9.17451277069669
2,1, 1, 1, 0,19,15.00,30.00,Tuesday
7,-1.9500000000000002
8,0.0
9,0.0
10,0.0
11,0.0
12,0.0
13,0.0
14,8.742554909137834
15,-3.097822099510211
16,6.926356224778658
17,-1.5355707575222369
18,9.133705003269557
2,1, 1, 1, 0,19,30.00,45.00,Tuesday
7,-2.075
8,0.0
9,0.0
10,0.0
11,0.0
12,0.0
13,0.0
14,8.707364519126383
15,-3.1739664122488868
16,6.87613446477809
17,-1.6536611867110196
18,9.098013412557224
2,1, 1, 1, 0,19,45.00,60.00,Tuesday
7,-2.2
8,0.0
9,0.0
10,0.0
11,0.0
12,0.0
13,0.0
14,8.674986802118316
15,-3.159357427744867
16,6.819796914650908
17,-1.7937780362035483
18,9.0643997259908
2,1, 1, 1, 0,20, 0.00,15.00,Tuesday
7,-1.9250000000000003
8,0.0
9,0.0
10,0.0
11,0.0
12,0.0
13,0.0
14,8.657986260371786
15,-2.86005229012882
16,6.842942616598634
17,-1.5782566843804489
18,9.033222523544796
2,1, 1, 1, 0,20,15.00,30.00,Tuesday
7,-1.6500000000000002
8,0.0
9,0.0
10,0.0
11,0.0
12,0.0
13,0.0
14,8.64134152576275
15,-2.5635662811443686
16,6.866174090906156
17,-1.3525206939953592
18,9.005014479063382
2,1, 1, 1, 0,20,30.00,45.00,Tuesday
7,-1.375
8,0.0
9,0.0
10,0.0
11,0.0
12,0.0
13,0.0
14,8.626397665325955
15,-2.2682803463893466
16,6.890894125013347
17,-1.1247778853645514
18,8.979457395830485
2,1, 1, 1, 0,20,45.00,60.00,Tuesday
7,-1.1
8,0.0
9,0.0
10,0.0
11,0.0
12,0.0
13,0.0
14,8.612951034256876
15,-1.9741809483234377
16,6.917346094125378
17,-0.8958137214734734
18,8.955917372771485
2,1, 1, 1, 0,21, 0.00,15.00,Tuesday
7,-1.25
8,0.0
9,0.0
10,0.0
11,0.0
12,0.0
13,0.0
14,8.560498551162065
15,-2.2474559927106845
16,6.875833404289551
17,-0.9826298160494389
18,8.927813207814486
2,1, 1, 1, 0,21,15.00,30.00,Tuesday
7,-1.4
8,0.0
9,0.0
10,0.0
11,0.0
12,0.0
13,0.0
14,8.508806215445253
15,-2.4598277932306198
16,6.820433060181415
17,-1.0872621675166557
18,8.890653681387413
2,1, 1, 1, 0,21,30.00,45.00,Tuesday
7,-1.5499999999999999
8,0.0
9,0.0
10,0.0
11,0.0
12,0.0
13,0.0
14,8.444225252490219
15,-2.793677890227773
16,6.767740829896525
17,-1.1676273458845117
18,8.843700327712105
2,1, 1, 1, 0,21,45.00,60.00,Tuesday
7,-1.7
8,0.0
9,0.0
10,0.0
11,0.0
12,0.0
13,0.0
14,8.374334109403977
15,-3.233491343697109
16,6.714198255615486
17,-1.2198942183098325
18,8.789222153911054
2,1, 1, 1, 0,22, 0.00,15.00,Tuesday
7,-1.5499999999999999
8,0.0
9,0.0
10,0.0
11,0.0
12,0.0
13,0.0
14,8.369851740319989
15,-2.7601261266113736
16,6.675275202246439
17,-1.1792594192937714
18,8.740682086729035
2,1, 1, 1, 0,22,15.00,30.00,Tuesday
7,-1.4
8,0.0
9,0.0
10,0.0
11,0.0
12,0.0
13,0.0
14,8.354137572294807
15,-2.4395816548246436
16,6.670643785731727
17,-1.1042506979550809
18,8.704992325442906
2,1, 1, 1, 0,22,30.00,45.00,Tuesday
7,-1.25
8,0.0
9,0.0
10,0.0
11,0.0
12,0.0
13,0.0
14,8.338989683970052
15,-2.223718252022101
16,6.6729763786202629
17,-1.0024994847183849
18,8.679664439707758
2,1, 1, 1, 0,22,45.00,60.00,Tuesday
7,-1.1
8,0.0
9,0.0
10,0.0
11,0.0
12,0.0
13,0.0
14,8.32771197371408
15,-1.9488942215945855
16,6.675618387611564
17,-0.9071052448121009
18,8.659435593473095
2,1, 1, 1, 0,23, 0.00,15.00,Tuesday
7,-1.25
8,0.0
9,0.0
10,0.0
11,0.0
12,0.0
13,0.0
14,8.274781164849726
15,-2.2521068801645365
16,6.594227321469134
17,-1.193178899743657
18,8.634028289559009
2,1, 1, 1, 0,23,15.00,30.00,Tuesday
7,-1.4
8,0.0
9,0.0
10,0.0
11,0.0
12,0.0
13,0.0
14,8.224014681154804
15,-2.556778235536247
16,6.499414544672618
17,-1.49496414243049
18,8.598573155736709
2,1, 1, 1, 0,23,30.00,45.00,Tuesday
7,-1.5499999999999999
8,0.0
9,0.0
10,0.0
11,0.0
12,0.0
13,0.0
14,8.168502776775963
15,-2.862091598657648
16,6.402490697440726
17,-1.7990673114647962
18,8.55437959606622
2,1, 1, 1, 0,23,45.00,60.00,Tuesday
7,-1.7
8,0.0
9,0.0
10,0.0
11,0.0
12,0.0
13,0.0
14,8.109146571563202
15,-3.1677498507079409
16,6.301792875257888
17,-2.1029411745806785
18,8.504471667499513
2,1, 1, 1, 0,24, 0.00,15.00,Tuesday
7,-1.7
8,0.0
9,0.0
10,0.0
11,0.0
12,0.0
13,0.0
14,8.065269076345868
15,-3.221967662576608
16,6.248043059056158
17,-2.166832733162721
18,8.454286044674305
2,1, 1, 1, 0,24,15.00,30.00,Tuesday
7,-1.7
8,0.0
9,0.0
10,0.0
11,0.0
12,0.0
13,0.0
14,8.019359420826257
15,-3.276734792767446
16,6.198889388570251
17,-2.2296935282221854
18,8.406655327669859
2,1, 1, 1, 0,24,30.00,45.00,Tuesday
7,-1.7
8,0.0
9,0.0
10,0.0
11,0.0
12,0.0
13,0.0
14,7.974569850670359
15,-3.331396610743003
16,6.149610545157429
17,-2.292560617309846
18,8.361481362849807
2,1, 1, 1, 0,24,45.00,60.00,Tuesday
7,-1.7
8,0.0
9,0.0
10,0.0
11,0.0
12,0.0
13,0.0
14,7.930597597332344
15,-3.3860623945147498
16,6.101281304104816
17,-2.355159387851245
18,8.317728932016142
End of Data
 Number of Records Written=        1152
