Program Version,EnergyPlus, Version 9.5.0-de239b2e5f, YMD=2023.02.16 21:08
1,5,Environment Title[],Latitude[deg],Longitude[deg],Time Zone[],Elevation[m]
2,8,Day of Simulation[],Month[],Day of Month[],DST Indicator[1=yes 0=no],Hour[],StartMinute[],EndMinute[],DayType
3,5,Cumulative Day of Simulation[],Month[],Day of Month[],DST Indicator[1=yes 0=no],DayType  ! When Daily Report Variables Requested
4,2,Cumulative Days of Simulation[],Month[]  ! When Monthly Report Variables Requested
5,1,Cumulative Days of Simulation[] ! When Run Period Report Variables Requested
6,1,Calendar Year of Simulation[] ! When Annual Report Variables Requested
7,1,Environment,Site Outdoor Air Drybulb Temperature [C] !TimeStep
8,1,ZONE ONE,Zone Windows Total Transmitted Solar Radiation Rate [W] !TimeStep
9,1,ZN001:WALL001,Surface Outside Face Sunlit Fraction [] !TimeStep
10,1,ZN001:WALL001,Surface Outside Face Incident Solar Radiation Rate per Area [W/m2] !TimeStep
11,1,ZN001:WALL001:WIN001,Surface Outside Face Sunlit Fraction [] !TimeStep
12,1,ZN001:WALL001:WIN001,Surface Outside Face Incident Solar Radiation Rate per Area [W/m2] !TimeStep
13,1,ZN001:WALL001:WIN001,Surface Window Transmitted Solar Radiation Rate [W] !TimeStep
14,1,ZN001:WALL001,Surface Inside Face Temperature [C] !TimeStep
15,1,ZN001:WALL001,Surface Outside Face Temperature [C] !TimeStep
16,1,ZN001:WALL001:WIN001,Surface Inside Face Temperature [C] !TimeStep
17,1,ZN001:WALL001:WIN001,Surface Outside Face Temperature [C] !TimeStep
18,1,ZONE ONE,Zone Mean Air Temperature [C] !TimeStep
End of Data Dictionary
1,RUN PERIOD 1,  41.98, -87.92,  -6.00, 201.00
2,1, 1, 1, 0, 1, 0.00,15.00,Tuesday
7,-4.324999999999999
8,0.0
9,0.0
10,0.0
11,0.0
12,0.0
13,0.0
14,-0.8264048896692133
15,-6.019547975788913
16,-2.4566049403177887
17,-5.142874970038292
18,-0.5486749164755919
2,1, 1, 1, 0, 1,15.00,30.00,Tuesday
7,-6.949999999999999
8,0.0
9,0.0
10,0.0
11,0.0
12,0.0
13,0.0
14,-1.0022972727310616
15,-8.487384161124025
16,-3.2922597444248824
17,-7.076147429390744
18,-0.632165463406138
2,1, 1, 1, 0, 1,30.00,45.00,Tuesday
7,-9.575
8,0.0
9,0.0
10,0.0
11,0.0
12,0.0
13,0.0
14,-1.2006231501734946
15,-10.964441418652563
16,-4.12639325136405
17,-9.015698894634739
18,-0.7530449072481802
2,1, 1, 1, 0, 1,45.00,60.00,Tuesday
7,-12.2
8,0.0
9,0.0
10,0.0
11,0.0
12,0.0
13,0.0
14,-1.4160819149676139
15,-13.447990326904714
16,-4.97250373447082
17,-10.96454349311307
18,-0.9012041417401249
2,1, 1, 1, 0, 2, 0.00,15.00,Tuesday
7,-12.075
8,0.0
9,0.0
10,0.0
11,0.0
12,0.0
13,0.0
14,-1.4685928432192928
15,-13.250152327547886
16,-4.994105530052252
17,-10.849249529704708
18,-1.0347018811894329
2,1, 1, 1, 0, 2,15.00,30.00,Tuesday
7,-11.95
8,0.0
9,0.0
10,0.0
11,0.0
12,0.0
13,0.0
14,-1.5374130608887554
15,-13.072824003298122
16,-4.992414853379103
17,-10.720132286400144
18,-1.1335043433044186
2,1, 1, 1, 0, 2,30.00,45.00,Tuesday
7,-11.825
8,0.0
9,0.0
10,0.0
11,0.0
12,0.0
13,0.0
14,-1.5876689487318113
15,-12.894158620348746
16,-4.985650291947877
17,-10.589491670254006
18,-1.2020471235525397
2,1, 1, 1, 0, 2,45.00,60.00,Tuesday
7,-11.7
8,0.0
9,0.0
10,0.0
11,0.0
12,0.0
13,0.0
14,-1.6253985184891449
15,-12.71554461132693
16,-4.966375584600996
17,-10.454428792373506
18,-1.2517867917595989
2,1, 1, 1, 0, 3, 0.00,15.00,Tuesday
7,-11.549999999999999
8,0.0
9,0.0
10,0.0
11,0.0
12,0.0
13,0.0
14,-1.6609610390401347
15,-12.592324064897032
16,-4.9425637962636419
17,-10.324540806130927
18,-1.2926295939350228
2,1, 1, 1, 0, 3,15.00,30.00,Tuesday
7,-11.399999999999999
8,0.0
9,0.0
10,0.0
11,0.0
12,0.0
13,0.0
14,-1.6925373433356935
15,-12.47059218531638
16,-4.916151036337851
17,-10.195155929121598
18,-1.329871538915168
2,1, 1, 1, 0, 3,30.00,45.00,Tuesday
7,-11.25
8,0.0
9,0.0
10,0.0
11,0.0
12,0.0
13,0.0
14,-1.722775308358985
15,-12.35053412380328
16,-4.887772947096096
17,-10.065808367197633
18,-1.3653948234137488
2,1, 1, 1, 0, 3,45.00,60.00,Tuesday
7,-11.1
8,0.0
9,0.0
10,0.0
11,0.0
12,0.0
13,0.0
14,-1.752277216756548
15,-12.232212114130997
16,-4.8586949243815529
17,-9.936898049119009
18,-1.399689986603431
2,1, 1, 1, 0, 4, 0.00,15.00,Tuesday
7,-11.1
8,0.0
9,0.0
10,0.0
11,0.0
12,0.0
13,0.0
14,-1.785475669196073
15,-12.1997586016484
16,-4.898389451803837
17,-9.956103434931379
18,-1.4339629230183609
2,1, 1, 1, 0, 4,15.00,30.00,Tuesday
7,-11.1
8,0.0
9,0.0
10,0.0
11,0.0
12,0.0
13,0.0
14,-1.8182979816895367
15,-12.168571195735137
16,-4.931587940816314
17,-9.981832207118828
18,-1.468703448508272
2,1, 1, 1, 0, 4,30.00,45.00,Tuesday
7,-11.1
8,0.0
9,0.0
10,0.0
11,0.0
12,0.0
13,0.0
14,-1.8513401005411554
15,-12.139107389608914
16,-4.963697158320429
17,-10.007801478555848
18,-1.5038237063479539
2,1, 1, 1, 0, 4,45.00,60.00,Tuesday
7,-11.1
8,0.0
9,0.0
10,0.0
11,0.0
12,0.0
13,0.0
14,-1.8845215903358744
15,-12.111227606045416
16,-4.995505402051265
17,-10.033179491504257
18,-1.5391007027150552
2,1, 1, 1, 0, 5, 0.00,15.00,Tuesday
7,-10.975
8,0.0
9,0.0
10,0.0
11,0.0
12,0.0
13,0.0
14,-1.910742098249987
15,-11.98882653013082
16,-4.977666359873183
17,-9.953444650800805
18,-1.5731146586021736
2,1, 1, 1, 0, 5,15.00,30.00,Tuesday
7,-10.85
8,0.0
9,0.0
10,0.0
11,0.0
12,0.0
13,0.0
14,-1.937699215825171
15,-11.866572232163959
16,-4.961999526240447
17,-9.866395624655752
18,-1.605349121083535
2,1, 1, 1, 0, 5,30.00,45.00,Tuesday
7,-10.725
8,0.0
9,0.0
10,0.0
11,0.0
12,0.0
13,0.0
14,-1.963555908825832
15,-11.744255987528654
16,-4.946489016660735
17,-9.778384183800086
18,-1.6360999298915533
2,1, 1, 1, 0, 5,45.00,60.00,Tuesday
7,-10.6
8,0.0
9,0.0
10,0.0
11,0.0
12,0.0
13,0.0
14,-1.9885474748474009
15,-11.62195233498314
16,-4.9302773100282029
17,-9.690000849279386
18,-1.6658005994346888
2,1, 1, 1, 0, 6, 0.00,15.00,Tuesday
7,-10.6
8,0.0
9,0.0
10,0.0
11,0.0
12,0.0
13,0.0
14,-2.0222167859055379
15,-11.62266557109708
16,-4.952365694226614
17,-9.692856671342156
18,-1.696200246688265
2,1, 1, 1, 0, 6,15.00,30.00,Tuesday
7,-10.6
8,0.0
9,0.0
10,0.0
11,0.0
12,0.0
13,0.0
14,-2.0543627638471819
15,-11.623229447946552
16,-4.976392993475542
17,-9.699462142718062
18,-1.7281113531049366
2,1, 1, 1, 0, 6,30.00,45.00,Tuesday
7,-10.6
8,0.0
9,0.0
10,0.0
11,0.0
12,0.0
13,0.0
14,-2.0871854141310179
15,-11.623878032594626
16,-5.0002369294390409
17,-9.706859356315704
18,-1.7612678836220353
2,1, 1, 1, 0, 6,45.00,60.00,Tuesday
7,-10.6
8,0.0
9,0.0
10,0.0
11,0.0
12,0.0
13,0.0
14,-2.120396923760702
15,-11.62452320955587
16,-5.024343856510313
17,-9.714683605291214
18,-1.79512631045993
2,1, 1, 1, 0, 7, 0.00,15.00,Tuesday
7,-10.6
8,0.0
9,0.0
10,0.0
11,0.0
12,0.0
13,0.0
14,-2.1513779660982514
15,-11.597791321366613
16,-5.0577936450462179
17,-9.734330076160234
18,-1.8290487801371372
2,1, 1, 1, 0, 7,15.00,30.00,Tuesday
7,-10.6
8,0.0
9,0.0
10,0.0
11,0.0
12,0.0
13,0.0
14,-2.1825767428834736
15,-11.572451979953366
16,-5.086823249982444
17,-9.754725294263267
18,-1.8625918883470545
2,1, 1, 1, 0, 7,30.00,45.00,Tuesday
7,-10.6
8,0.0
9,0.0
10,0.0
11,0.0
12,0.0
13,0.0
14,-2.21357901094526
15,-11.548391349351372
16,-5.115262320957072
17,-9.774881117960377
18,-1.8956913325164242
2,1, 1, 1, 0, 7,45.00,60.00,Tuesday
7,-10.6
8,0.0
9,0.0
10,0.0
11,0.0
12,0.0
13,0.0
14,-2.2443273878326148
15,-11.525534414279243
16,-5.143235698253079
17,-9.794429301545734
18,-1.9284322152843017
2,1, 1, 1, 0, 8, 0.00,15.00,Tuesday
7,-10.45
8,0.0
9,0.0
10,0.0
11,0.0
12,0.0
13,0.0
14,-2.2760079651567044
15,-11.478727424790897
16,-5.138826320936289
17,-9.761975914356185
18,-1.961085420191353
2,1, 1, 1, 0, 8,15.00,30.00,Tuesday
7,-10.3
8,48.37781979229514
9,1.0
10,22.819555959623899
11,1.0
12,22.819555959623899
13,48.37781979229514
14,-2.20632049789192
15,-9.806175709831872
16,-4.742216151892876
17,-9.363169231112636
18,-1.9804656845509728
2,1, 1, 1, 0, 8,30.00,45.00,Tuesday
7,-10.15
8,237.88593593245407
9,1.0
10,109.75755355442667
11,1.0
12,109.75755355442667
13,237.88593593245407
14,-1.8612367465890725
15,-3.4534956924326485
16,-3.1424075062834619
17,-7.976065216729296
18,-1.95098679291348
2,1, 1, 1, 0, 8,45.00,60.00,Tuesday
7,-10.0
8,433.6486066510219
9,1.0
10,195.8764694434918
11,1.0
12,195.8764694434918
13,433.6486066510219
14,-1.4524942803743533
15,3.0369221053764967
16,-1.3937391281714327
17,-6.550259090110899
18,-1.8680430336435333
2,1, 1, 1, 0, 9, 0.00,15.00,Tuesday
7,-9.725
8,629.8133241912386
9,1.0
10,278.97248314719988
11,1.0
12,278.97248314719988
13,629.8133241912386
14,-1.1346607223577304
15,8.228442612052252
16,0.18352171852046696
17,-5.307496301105459
18,-1.7429445477170265
2,1, 1, 1, 0, 9,15.00,30.00,Tuesday
7,-9.45
8,837.7116854113558
9,1.0
10,364.91995730569456
11,1.0
12,364.91995730569456
13,837.7116854113558
14,-0.7964378340846108
15,13.309980224815375
16,1.7411952379569585
17,-4.070977295380544
18,-1.58202800336631
2,1, 1, 1, 0, 9,30.00,45.00,Tuesday
7,-9.175
8,976.7624830576193
9,1.0
10,420.35879993239237
11,1.0
12,420.35879993239237
13,976.7624830576193
14,-0.5705479131171706
15,16.071170187220248
16,2.754743422678189
17,-3.296874585180717
18,-1.4026749023759595
2,1, 1, 1, 0, 9,45.00,60.00,Tuesday
7,-8.9
8,1121.6146084510393
9,1.0
10,478.00138373643099
11,1.0
12,478.00138373643099
13,1121.6146084510393
14,-0.30370606347488246
15,19.067381781303636
16,3.782519920896732
17,-2.504897568821093
18,-1.212439353569336
2,1, 1, 1, 0,10, 0.00,15.00,Tuesday
7,-8.350000000000002
8,1270.0269553388162
9,1.0
10,536.9185644770597
11,1.0
12,536.9185644770597
13,1270.0269553388162
14,-0.09955438830104176
15,20.190651118926909
16,4.820989744606891
17,-1.7236097211692823
18,-1.0072986164893223
2,1, 1, 1, 0,10,15.00,30.00,Tuesday
7,-7.800000000000001
8,1423.952062283466
9,1.0
10,598.0969199229219
11,1.0
12,598.0969199229219
13,1423.952062283466
14,0.12702226291039285
15,21.447857794574828
16,5.875008738297311
17,-0.9473165235369834
18,-0.7900602043567189
2,1, 1, 1, 0,10,30.00,45.00,Tuesday
7,-7.25
8,1526.2141510839877
9,1.0
10,637.6133352894237
11,1.0
12,637.6133352894237
13,1526.2141510839877
14,0.2887513526279092
15,21.51143131391818
16,6.5983513817107
17,-0.43118525385398245
18,-0.5744269473897127
2,1, 1, 1, 0,10,45.00,60.00,Tuesday
7,-6.7
8,1627.1474770805795
9,1.0
10,676.6412284283772
11,1.0
12,676.6412284283772
13,1627.1474770805795
14,0.4638753614960629
15,21.67468209824537
16,7.30009068131119
17,0.07845774688155416
18,-0.3682669645304806
2,1, 1, 1, 0,11, 0.00,15.00,Tuesday
7,-6.275
8,1726.3559791399826
9,1.0
10,715.0112779846514
11,1.0
12,715.0112779846514
13,1726.3559791399826
14,0.7167973574247989
15,23.771627889447417
16,8.081307255504214
17,0.8485055195710629
18,-0.16680450859381217
2,1, 1, 1, 0,11,15.00,30.00,Tuesday
7,-5.85
8,1823.2698116145473
9,1.0
10,752.5077794605232
11,1.0
12,752.5077794605232
13,1823.2698116145473
14,0.9545097918524134
15,25.706307421495024
16,8.845679230587507
17,1.597985799355797
18,0.03516242822564204
2,1, 1, 1, 0,11,30.00,45.00,Tuesday
7,-5.425
8,1796.527582854471
9,1.0
10,742.5988714321785
11,1.0
12,742.5988714321785
13,1796.527582854471
14,1.0804634673170546
15,25.55807521784041
16,8.932801959620634
17,1.8472688923471879
18,0.22356720930974487
2,1, 1, 1, 0,11,45.00,60.00,Tuesday
7,-5.0
8,1757.2302902542625
9,1.0
10,727.8169025450712
11,1.0
12,727.8169025450712
13,1757.2302902542625
14,1.2036235948862644
15,25.32819258507213
16,8.933880680795369
17,2.054597287444153
18,0.38885443007947126
2,1, 1, 1, 0,12, 0.00,15.00,Tuesday
7,-4.575
8,1688.8915154248735
9,1.0
10,700.3759009170325
11,1.0
12,700.3759009170325
13,1688.8915154248735
14,1.2833326191611843
15,24.585070406502273
16,8.76810456080409
17,2.175310455113163
18,0.5270388883775324
2,1, 1, 1, 0,12,15.00,30.00,Tuesday
7,-4.15
8,1637.402928242804
9,1.0
10,681.6705029034473
11,1.0
12,681.6705029034473
13,1637.402928242804
14,1.379268812243757
15,24.25404602129613
16,8.707310088119698
17,2.378610520566667
18,0.644535839462884
2,1, 1, 1, 0,12,30.00,45.00,Tuesday
7,-3.7249999999999998
8,1436.3325328204419
9,1.0
10,602.01865277251
11,1.0
12,602.01865277251
13,1436.3325328204419
14,1.2913662483111038
15,21.225619383390727
16,7.782247091206841
17,1.9726100748010254
18,0.7258567422336769
2,1, 1, 1, 0,12,45.00,60.00,Tuesday
7,-3.3
8,1172.3264399988607
9,1.0
10,493.55004396206007
11,1.0
12,493.55004396206007
13,1172.3264399988607
14,1.1207864934015717
15,17.04660137630199
16,6.388048225984221
17,1.2530836672621036
18,0.7569415506558063
2,1, 1, 1, 0,13, 0.00,15.00,Tuesday
7,-3.0249999999999996
8,965.8676445104285
9,1.0
10,412.335026418112
11,1.0
12,412.335026418112
13,965.8676445104285
14,1.0042726467975079
15,14.201172771106523
16,5.313835138387049
17,0.7492489333606045
18,0.7473677290344055
2,1, 1, 1, 0,13,15.00,30.00,Tuesday
7,-2.75
8,705.6249663298465
9,1.0
10,305.94037763660148
11,1.0
12,305.94037763660148
13,705.6249663298465
14,0.7803137071285656
15,10.027434785097395
16,3.825597680895271
17,-0.05144165307444837
18,0.7009004760026079
2,1, 1, 1, 0,13,30.00,45.00,Tuesday
7,-2.475
8,643.2935934547763
9,1.0
10,281.0763483922329
11,1.0
12,281.0763483922329
13,643.2935934547763
14,0.7681051738453633
15,9.513459590978802
16,3.540947632029315
17,-0.002360923875244225
18,0.6467073029904323
2,1, 1, 1, 0,13,45.00,60.00,Tuesday
7,-2.2
8,582.2666563732777
9,1.0
10,256.7721209415886
11,1.0
12,256.7721209415886
13,582.2666563732777
14,0.7412022218080464
15,8.905440940703793
16,3.2889713093711636
17,0.060867440692845779
18,0.6033323972451298
2,1, 1, 1, 0,14, 0.00,15.00,Tuesday
7,-1.9250000000000003
8,475.0797112458438
9,1.0
10,210.73276284570657
11,1.0
12,210.73276284570657
13,475.0797112458438
14,0.6538671136747138
15,7.356315874674149
16,2.6814602107903058
17,-0.1451768831178697
18,0.5666882093914534
2,1, 1, 1, 0,14,15.00,30.00,Tuesday
7,-1.6500000000000002
8,421.0810450664391
9,1.0
10,189.38488290342594
11,1.0
12,189.38488290342594
13,421.0810450664391
14,0.6388730624433516
15,6.948347808870128
16,2.439648180562415
17,-0.10143273523181051
18,0.5364630973375727
2,1, 1, 1, 0,14,30.00,45.00,Tuesday
7,-1.375
8,401.774828289982
9,1.0
10,179.3940297802914
11,1.0
12,179.3940297802914
13,401.774828289982
14,0.6464985392167648
15,7.066571882587955
16,2.4039679718362096
17,0.08248862774439658
18,0.5140095720290839
2,1, 1, 1, 0,14,45.00,60.00,Tuesday
7,-1.1
8,382.12108825797437
9,1.0
10,169.43349014176136
11,1.0
12,169.43349014176136
13,382.12108825797437
14,0.6522571930771497
15,7.16265099829619
16,2.3654789996746219
17,0.2625522260136677
18,0.49936564385799517
2,1, 1, 1, 0,15, 0.00,15.00,Tuesday
7,-1.1
8,401.91385134140628
9,1.0
10,178.15692317953907
11,1.0
12,178.15692317953907
13,401.91385134140628
14,0.6968039220846164
15,7.975399464647515
16,2.5226755624959198
17,0.40989108346104788
18,0.4943251780196697
2,1, 1, 1, 0,15,15.00,30.00,Tuesday
7,-1.1
8,377.40659100319177
9,1.0
10,166.40516310952945
11,1.0
12,166.40516310952945
13,377.40659100319177
14,0.6688725900429088
15,7.611621295684888
16,2.353405579148216
17,0.3099103240928116
18,0.492699007361188
2,1, 1, 1, 0,15,30.00,45.00,Tuesday
7,-1.1
8,317.75596371098598
9,1.0
10,140.8967369711617
11,1.0
12,140.8967369711617
13,317.75596371098598
14,0.5893569345819653
15,6.403016619239439
16,1.9252794383905894
17,0.0002590698680933201
18,0.48533551047333625
2,1, 1, 1, 0,15,45.00,60.00,Tuesday
7,-1.1
8,261.0934712331853
9,1.0
10,116.57355796743004
11,1.0
12,116.57355796743004
13,261.0934712331853
14,0.5094843180771655
15,5.1902548824198659
16,1.4941151732313074
17,-0.31659739713802539
18,0.4649452376060627
2,1, 1, 1, 0,16, 0.00,15.00,Tuesday
7,-1.1
8,206.91088787927186
9,1.0
10,93.14939272689483
11,1.0
12,93.14939272689483
13,206.91088787927186
14,0.4308815854332614
15,4.12861506090155
16,1.093339372475839
17,-0.572645898068572
18,0.4318273917212594
2,1, 1, 1, 0,16,15.00,30.00,Tuesday
7,-1.1
8,128.24394957662509
9,1.0
10,57.94047897402063
11,1.0
12,57.94047897402063
13,128.24394957662509
14,0.2649375791437543
15,1.9784798503488209
16,0.42998103629145137
17,-1.0494767700456578
18,0.3840864884225185
2,1, 1, 1, 0,16,30.00,45.00,Tuesday
7,-1.1
8,99.28426277067597
9,1.0
10,45.38251793443488
11,1.0
12,45.38251793443488
13,99.28426277067597
14,0.22483326047462313
15,1.3741904272491708
16,0.16224184516164542
17,-1.2104041844904714
18,0.3288337353404686
2,1, 1, 1, 0,16,45.00,60.00,Tuesday
7,-1.1
8,69.22193753677786
9,1.0
10,32.02625108222755
11,1.0
12,32.02625108222755
13,69.22193753677786
14,0.14365327959103434
15,0.49528619999572245
16,-0.1031257117750215
17,-1.3942131490375687
18,0.2713398931253871
2,1, 1, 1, 0,17, 0.00,15.00,Tuesday
7,-1.1
8,37.939612009912227
9,1.0
10,17.762198626050539
11,1.0
12,17.762198626050539
13,37.939612009912227
14,0.03398149563383913
15,-0.7747096071798572
16,-0.43391636411405445
17,-1.6970936256910819
18,0.20892126883029153
2,1, 1, 1, 0,17,15.00,30.00,Tuesday
7,-1.1
8,0.0
9,0.0
10,0.0
11,0.0
12,0.0
13,0.0
14,-0.12291814508030635
15,-2.6196296332486366
16,-0.8254817647768959
17,-2.0406722935617838
18,0.13172889402088409
2,1, 1, 1, 0,17,30.00,45.00,Tuesday
7,-1.1
8,0.0
9,0.0
10,0.0
11,0.0
12,0.0
13,0.0
14,-0.15840265696527815
15,-2.7628545093747407
16,-0.9084011532974046
17,-2.1146925765076505
18,0.04984777369006546
2,1, 1, 1, 0,17,45.00,60.00,Tuesday
7,-1.1
8,0.0
9,0.0
10,0.0
11,0.0
12,0.0
13,0.0
14,-0.21153676150960463
15,-2.9687377390394578
16,-0.9668307939169267
17,-2.1889048156999708
18,-0.024896229960991096
2,1, 1, 1, 0,18, 0.00,15.00,Tuesday
7,-1.25
8,0.0
9,0.0
10,0.0
11,0.0
12,0.0
13,0.0
14,-0.25466819719306668
15,-3.11470656841115
16,-1.0502515562184272
17,-2.319210603925171
18,-0.08641391690150593
2,1, 1, 1, 0,18,15.00,30.00,Tuesday
7,-1.4
8,0.0
9,0.0
10,0.0
11,0.0
12,0.0
13,0.0
14,-0.29343264692036349
15,-3.2671466334324199
16,-1.1237900220614848
17,-2.4404044479599635
18,-0.13536072987216944
2,1, 1, 1, 0,18,30.00,45.00,Tuesday
7,-1.5499999999999999
8,0.0
9,0.0
10,0.0
11,0.0
12,0.0
13,0.0
14,-0.32904948604250147
15,-3.4188745659033188
16,-1.1923071219085842
17,-2.5545832681765434
18,-0.1753256891517941
2,1, 1, 1, 0,18,45.00,60.00,Tuesday
7,-1.7
8,0.0
9,0.0
10,0.0
11,0.0
12,0.0
13,0.0
14,-0.36197273560665646
15,-3.570648613710839
16,-1.2618341286047326
17,-2.679944681317693
18,-0.20969228961142315
2,1, 1, 1, 0,19, 0.00,15.00,Tuesday
7,-1.825
8,0.0
9,0.0
10,0.0
11,0.0
12,0.0
13,0.0
14,-0.36446029204671417
15,-3.40052176424917
16,-1.2809020345910085
17,-2.6924001059469448
18,-0.23683527986373377
2,1, 1, 1, 0,19,15.00,30.00,Tuesday
7,-1.9500000000000002
8,0.0
9,0.0
10,0.0
11,0.0
12,0.0
13,0.0
14,-0.36755984263797028
15,-3.314483646222524
16,-1.299804904341613
17,-2.7178377234785104
18,-0.255565623147095
2,1, 1, 1, 0,19,30.00,45.00,Tuesday
7,-2.075
8,0.0
9,0.0
10,0.0
11,0.0
12,0.0
13,0.0
14,-0.37569073009987349
15,-3.3830407209129156
16,-1.3386046363464175
17,-2.793515324153077
18,-0.267817842092084
2,1, 1, 1, 0,19,45.00,60.00,Tuesday
7,-2.2
8,0.0
9,0.0
10,0.0
11,0.0
12,0.0
13,0.0
14,-0.3803634243071166
15,-3.3436782556605846
16,-1.359182876455975
17,-2.838392522150457
18,-0.2765537395093521
2,1, 1, 1, 0,20, 0.00,15.00,Tuesday
7,-1.9250000000000003
8,0.0
9,0.0
10,0.0
11,0.0
12,0.0
13,0.0
14,-0.3703938651997533
15,-3.0381126000296887
16,-1.2641832698595864
17,-2.621709130143131
18,-0.2819375607659654
2,1, 1, 1, 0,20,15.00,30.00,Tuesday
7,-1.6500000000000002
8,0.0
9,0.0
10,0.0
11,0.0
12,0.0
13,0.0
14,-0.35746806514681686
15,-2.735899467701659
16,-1.1704759415633249
17,-2.3968846065494064
18,-0.28377463640236968
2,1, 1, 1, 0,20,30.00,45.00,Tuesday
7,-1.375
8,0.0
9,0.0
10,0.0
11,0.0
12,0.0
13,0.0
14,-0.34268522780251367
15,-2.4352648607178568
16,-1.0742129981857716
17,-2.1695583282408394
18,-0.28242923970236785
2,1, 1, 1, 0,20,45.00,60.00,Tuesday
7,-1.1
8,0.0
9,0.0
10,0.0
11,0.0
12,0.0
13,0.0
14,-0.3250218072163017
15,-2.1360660127987245
16,-0.9755497786542264
17,-1.9401863571119407
18,-0.2784731339572798
2,1, 1, 1, 0,21, 0.00,15.00,Tuesday
7,-1.25
8,0.0
9,0.0
10,0.0
11,0.0
12,0.0
13,0.0
14,-0.35714562198914159
15,-2.435427190073299
16,-1.058253347971629
17,-2.1029889885082868
18,-0.27810035200890245
2,1, 1, 1, 0,21,15.00,30.00,Tuesday
7,-1.4
8,0.0
9,0.0
10,0.0
11,0.0
12,0.0
13,0.0
14,-0.3915725237138886
15,-2.6612838617589809
16,-1.1264753951181775
17,-2.244130010627714
18,-0.2865630919409705
2,1, 1, 1, 0,21,30.00,45.00,Tuesday
7,-1.5499999999999999
8,0.0
9,0.0
10,0.0
11,0.0
12,0.0
13,0.0
14,-0.4390498097515945
15,-3.028658351256431
16,-1.2185174274821976
17,-2.4283147489073828
18,-0.30608501755427305
2,1, 1, 1, 0,21,45.00,60.00,Tuesday
7,-1.7
8,0.0
9,0.0
10,0.0
11,0.0
12,0.0
13,0.0
14,-0.49138284809730017
15,-3.506683389957902
16,-1.3227322953458157
17,-2.6443087687267736
18,-0.3354591981098511
2,1, 1, 1, 0,22, 0.00,15.00,Tuesday
7,-1.5499999999999999
8,0.0
9,0.0
10,0.0
11,0.0
12,0.0
13,0.0
14,-0.46302447395913395
15,-2.9878210429711364
16,-1.2462151758139158
17,-2.448960332460331
18,-0.36044378101380006
2,1, 1, 1, 0,22,15.00,30.00,Tuesday
7,-1.4
8,0.0
9,0.0
10,0.0
11,0.0
12,0.0
13,0.0
14,-0.444451888215321
15,-2.6365303792488077
16,-1.1661510551059565
17,-2.2647317319442665
18,-0.3729206065601069
2,1, 1, 1, 0,22,30.00,45.00,Tuesday
7,-1.25
8,0.0
9,0.0
10,0.0
11,0.0
12,0.0
13,0.0
14,-0.4282582920304313
15,-2.4068485460695387
16,-1.1039129512614068
17,-2.1195628702573687
18,-0.3743314630107751
2,1, 1, 1, 0,22,45.00,60.00,Tuesday
7,-1.1
8,0.0
9,0.0
10,0.0
11,0.0
12,0.0
13,0.0
14,-0.4082583640652844
15,-2.107081550572616
16,-1.0200896805291678
17,-1.939465286625591
18,-0.3691756022906884
2,1, 1, 1, 0,23, 0.00,15.00,Tuesday
7,-1.25
8,0.0
9,0.0
10,0.0
11,0.0
12,0.0
13,0.0
14,-0.44159866715283765
15,-2.4115372281943157
16,-1.1401815944807368
17,-2.187176104948776
18,-0.3670025355626965
2,1, 1, 1, 0,23,15.00,30.00,Tuesday
7,-1.4
8,0.0
9,0.0
10,0.0
11,0.0
12,0.0
13,0.0
14,-0.4725978381004321
15,-2.715976605327858
16,-1.2642696070699913
17,-2.455920127401896
18,-0.3738668619835696
2,1, 1, 1, 0,23,30.00,45.00,Tuesday
7,-1.5499999999999999
8,0.0
9,0.0
10,0.0
11,0.0
12,0.0
13,0.0
14,-0.5083558067266327
15,-3.021040919081686
16,-1.3881433822444934
17,-2.7250766976736147
18,-0.39026166714692747
2,1, 1, 1, 0,23,45.00,60.00,Tuesday
7,-1.7
8,0.0
9,0.0
10,0.0
11,0.0
12,0.0
13,0.0
14,-0.5463084961436664
15,-3.3263829211875546
16,-1.5147473790779032
17,-2.9951224310727868
18,-0.41410603149136579
2,1, 1, 1, 0,24, 0.00,15.00,Tuesday
7,-1.7
8,0.0
9,0.0
10,0.0
11,0.0
12,0.0
13,0.0
14,-0.5649880169144923
15,-3.3798321684424614
16,-1.551238918197953
17,-3.0515785557312258
18,-0.4398773353896334
2,1, 1, 1, 0,24,15.00,30.00,Tuesday
7,-1.7
8,0.0
9,0.0
10,0.0
11,0.0
12,0.0
13,0.0
14,-0.5867724899042487
15,-3.434232450735496
16,-1.585440450512067
17,-3.1062007765375485
18,-0.4641233162248181
2,1, 1, 1, 0,24,30.00,45.00,Tuesday
7,-1.7
8,0.0
9,0.0
10,0.0
11,0.0
12,0.0
13,0.0
14,-0.6081116302167654
15,-3.4884950101937215
16,-1.6203457934423682
17,-3.161025797686648
18,-0.486275831258261
2,1, 1, 1, 0,24,45.00,60.00,Tuesday
7,-1.7
8,0.0
9,0.0
10,0.0
11,0.0
12,0.0
13,0.0
14,-0.6289443579660325
15,-3.5427521836176827
16,-1.6547822305252567
17,-3.215611517542925
18,-0.5069752955993784
End of Data
 Number of Records Written=        1152
