Program Version,EnergyPlus, Version 9.5.0-de239b2e5f, YMD=2023.02.17 18:13
1,5,Environment Title[],Latitude[deg],Longitude[deg],Time Zone[],Elevation[m]
2,8,Day of Simulation[],Month[],Day of Month[],DST Indicator[1=yes 0=no],Hour[],StartMinute[],EndMinute[],DayType
3,5,Cumulative Day of Simulation[],Month[],Day of Month[],DST Indicator[1=yes 0=no],DayType  ! When Daily Report Variables Requested
4,2,Cumulative Days of Simulation[],Month[]  ! When Monthly Report Variables Requested
5,1,Cumulative Days of Simulation[] ! When Run Period Report Variables Requested
6,1,Calendar Year of Simulation[] ! When Annual Report Variables Requested
7,1,Environment,Site Outdoor Air Drybulb Temperature [C] !TimeStep
8,1,ZONE ONE,Zone Windows Total Transmitted Solar Radiation Rate [W] !TimeStep
9,1,ZN001:WALL001,Surface Outside Face Sunlit Fraction [] !TimeStep
10,1,ZN001:WALL001,Surface Outside Face Incident Solar Radiation Rate per Area [W/m2] !TimeStep
11,1,ZN001:WALL001:WIN001,Surface Outside Face Sunlit Fraction [] !TimeStep
12,1,ZN001:WALL001:WIN001,Surface Outside Face Incident Solar Radiation Rate per Area [W/m2] !TimeStep
13,1,ZN001:WALL001:WIN001,Surface Window Transmitted Solar Radiation Rate [W] !TimeStep
14,1,ZN001:WALL001,Surface Inside Face Temperature [C] !TimeStep
15,1,ZN001:WALL001,Surface Outside Face Temperature [C] !TimeStep
16,1,ZN001:WALL001:WIN001,Surface Inside Face Temperature [C] !TimeStep
17,1,ZN001:WALL001:WIN001,Surface Outside Face Temperature [C] !TimeStep
18,1,ZONE ONE,Zone Mean Air Temperature [C] !TimeStep
End of Data Dictionary
1,RUN PERIOD 1,  41.98, -87.92,  -6.00, 201.00
2,1, 1, 1, 0, 1, 0.00,15.00,Tuesday
7,-4.324999999999999
8,0.0
9,0.0
10,0.0
11,0.0
12,0.0
13,0.0
14,4.39643744025035
15,-5.923872118736708
16,2.3356840259849607
17,-4.63885256731362
18,4.818337957660674
2,1, 1, 1, 0, 1,15.00,30.00,Tuesday
7,-6.949999999999999
8,0.0
9,0.0
10,0.0
11,0.0
12,0.0
13,0.0
14,4.216974299213314
15,-8.391505015844699
16,1.7265258487903453
17,-6.726539879242807
18,4.725091875979739
2,1, 1, 1, 0, 1,30.00,45.00,Tuesday
7,-9.575
8,0.0
9,0.0
10,0.0
11,0.0
12,0.0
13,0.0
14,4.0175235185590119
15,-10.867231830719213
16,1.1126761092884863
17,-8.82071492202624
18,4.5995939599638329
2,1, 1, 1, 0, 1,45.00,60.00,Tuesday
7,-12.2
8,0.0
9,0.0
10,0.0
11,0.0
12,0.0
13,0.0
14,3.802233616264025
15,-13.349553501488338
16,0.4844225738698924
17,-10.92274253733001
18,4.451465680196351
2,1, 1, 1, 0, 2, 0.00,15.00,Tuesday
7,-12.075
8,0.0
9,0.0
10,0.0
11,0.0
12,0.0
13,0.0
14,3.738306153529795
15,-13.150766578696077
16,0.418125571781502
17,-10.76844568464935
18,4.317795426604112
2,1, 1, 1, 0, 2,15.00,30.00,Tuesday
7,-11.95
8,0.0
9,0.0
10,0.0
11,0.0
12,0.0
13,0.0
14,3.6604251550210198
15,-12.97361272460824
16,0.38839134957612489
17,-10.622572442611159
18,4.215913383503616
2,1, 1, 1, 0, 2,30.00,45.00,Tuesday
7,-11.825
8,0.0
9,0.0
10,0.0
11,0.0
12,0.0
13,0.0
14,3.5996504099794368
15,-12.795284946586433
16,0.36406692749835659
17,-10.476312180630316
18,4.140789486791301
2,1, 1, 1, 0, 2,45.00,60.00,Tuesday
7,-11.7
8,0.0
9,0.0
10,0.0
11,0.0
12,0.0
13,0.0
14,3.550143294931264
15,-12.617029660999803
16,0.3524134509806345
17,-10.327398454320815
18,4.08155492013193
2,1, 1, 1, 0, 3, 0.00,15.00,Tuesday
7,-11.549999999999999
8,0.0
9,0.0
10,0.0
11,0.0
12,0.0
13,0.0
14,3.502353082357793
15,-12.491420436655853
16,0.3503139071700616
17,-10.193165035077869
18,4.029280554102728
2,1, 1, 1, 0, 3,15.00,30.00,Tuesday
7,-11.399999999999999
8,0.0
9,0.0
10,0.0
11,0.0
12,0.0
13,0.0
14,3.4577836488692896
15,-12.367198557856284
16,0.3433616168404683
17,-10.04029735685981
18,3.9793698228969847
2,1, 1, 1, 0, 3,30.00,45.00,Tuesday
7,-11.25
8,0.0
9,0.0
10,0.0
11,0.0
12,0.0
13,0.0
14,3.41421834192524
15,-12.244528673077346
16,0.3449279243731098
17,-9.905166857994687
18,3.9305281026146718
2,1, 1, 1, 0, 3,45.00,60.00,Tuesday
7,-11.1
8,0.0
9,0.0
10,0.0
11,0.0
12,0.0
13,0.0
14,3.3711338517812097
15,-12.123462884360212
16,0.34427302346819035
17,-9.76190438913136
18,3.88255326973238
2,1, 1, 1, 0, 4, 0.00,15.00,Tuesday
7,-11.1
8,0.0
9,0.0
10,0.0
11,0.0
12,0.0
13,0.0
14,3.32436599089807
15,-12.094366803494335
16,0.2927721492725368
17,-9.785216373513834
18,3.834526306480765
2,1, 1, 1, 0, 4,15.00,30.00,Tuesday
7,-11.1
8,0.0
9,0.0
10,0.0
11,0.0
12,0.0
13,0.0
14,3.278006980291534
15,-12.066396111971095
16,0.24706515364937332
17,-9.815559966942601
18,3.7861006917892077
2,1, 1, 1, 0, 4,30.00,45.00,Tuesday
7,-11.1
8,0.0
9,0.0
10,0.0
11,0.0
12,0.0
13,0.0
14,3.2314738798504347
15,-12.039990381800907
16,0.20211268335469868
17,-9.845701015274927
18,3.737393184378672
2,1, 1, 1, 0, 4,45.00,60.00,Tuesday
7,-11.1
8,0.0
9,0.0
10,0.0
11,0.0
12,0.0
13,0.0
14,3.184869385540982
15,-12.015017608655056
16,0.15736995929853493
17,-9.874990201431502
18,3.688610006325882
2,1, 1, 1, 0, 5, 0.00,15.00,Tuesday
7,-10.975
8,0.0
9,0.0
10,0.0
11,0.0
12,0.0
13,0.0
14,3.143915986661902
15,-11.892961710374838
16,0.1485736351805258
17,-9.787870037739595
18,3.640920062342791
2,1, 1, 1, 0, 5,15.00,30.00,Tuesday
7,-10.85
8,0.0
9,0.0
10,0.0
11,0.0
12,0.0
13,0.0
14,3.103167788485222
15,-11.770985172680407
16,0.13777377553702764
17,-9.692807931803828
18,3.5948016178735906
2,1, 1, 1, 0, 5,30.00,45.00,Tuesday
7,-10.725
8,0.0
9,0.0
10,0.0
11,0.0
12,0.0
13,0.0
14,3.0634200172715304
15,-11.648986841019302
16,0.12724508858224227
17,-9.596904125791184
18,3.55003898873502
2,1, 1, 1, 0, 5,45.00,60.00,Tuesday
7,-10.6
8,0.0
9,0.0
10,0.0
11,0.0
12,0.0
13,0.0
14,3.0245101900352839
15,-11.526998175554548
16,0.11749684498022362
17,-9.500768188411826
18,3.506264403088963
2,1, 1, 1, 0, 6, 0.00,15.00,Tuesday
7,-10.6
8,0.0
9,0.0
10,0.0
11,0.0
12,0.0
13,0.0
14,2.9785331900760569
15,-11.527912374008937
16,0.08148030016081975
17,-9.504362918227685
18,3.461989089151844
2,1, 1, 1, 0, 6,15.00,30.00,Tuesday
7,-10.6
8,0.0
9,0.0
10,0.0
11,0.0
12,0.0
13,0.0
14,2.933144763485139
15,-11.528758538681294
16,0.04074589515238358
17,-9.508693987232789
18,3.4163236485669707
2,1, 1, 1, 0, 6,30.00,45.00,Tuesday
7,-10.6
8,0.0
9,0.0
10,0.0
11,0.0
12,0.0
13,0.0
14,2.8872256283762325
15,-11.529651302482114
16,0.002755467688700719
17,-9.516124248685515
18,3.3695418827534495
2,1, 1, 1, 0, 6,45.00,60.00,Tuesday
7,-10.6
8,0.0
9,0.0
10,0.0
11,0.0
12,0.0
13,0.0
14,2.840954151766207
15,-11.530542220375269
16,-0.03545374717879213
17,-9.524017145714425
18,3.3221979801595284
2,1, 1, 1, 0, 7, 0.00,15.00,Tuesday
7,-10.6
8,0.0
9,0.0
10,0.0
11,0.0
12,0.0
13,0.0
14,2.796728753262184
15,-11.506520112338406
16,-0.07904895592298544
17,-9.548609298853535
18,3.275001722548435
2,1, 1, 1, 0, 7,15.00,30.00,Tuesday
7,-10.6
8,0.0
9,0.0
10,0.0
11,0.0
12,0.0
13,0.0
14,2.7523701175214709
15,-11.483743104680827
16,-0.12090923021628442
17,-9.57329260269637
18,3.228312744760275
2,1, 1, 1, 0, 7,30.00,45.00,Tuesday
7,-10.6
8,0.0
9,0.0
10,0.0
11,0.0
12,0.0
13,0.0
14,2.7082989065748506
15,-11.46212294475302
16,-0.16237270110457303
17,-9.597301437847819
18,3.1821102129537817
2,1, 1, 1, 0, 7,45.00,60.00,Tuesday
7,-10.6
8,0.0
9,0.0
10,0.0
11,0.0
12,0.0
13,0.0
14,2.664523033244204
15,-11.441591321923815
16,-0.20337358925092986
17,-9.620514731368076
18,3.1362735199836058
2,1, 1, 1, 0, 8, 0.00,15.00,Tuesday
7,-10.45
8,0.0
9,0.0
10,0.0
11,0.0
12,0.0
13,0.0
14,2.620051404533545
15,-11.392907679976194
16,-0.22173915982591553
17,-9.57201528667963
18,3.0904368799138255
2,1, 1, 1, 0, 8,15.00,30.00,Tuesday
7,-10.3
8,129.31043002829274
9,1.0
10,22.819555959623899
11,1.0
12,22.819555959623899
13,129.31043002829274
14,2.690965902685961
15,-9.719575456723558
16,0.11669318085279201
17,-9.21931238704758
18,3.0616479728614958
2,1, 1, 1, 0, 8,30.00,45.00,Tuesday
7,-10.15
8,635.1975482244823
9,1.0
10,109.75755355442667
11,1.0
12,109.75755355442667
13,635.1975482244823
14,3.0761497461740188
15,-3.3530425940567918
16,1.5332426665459025
17,-7.997282394751551
18,3.0971254923906659
2,1, 1, 1, 0, 8,45.00,60.00,Tuesday
7,-10.0
8,1155.986149826715
9,1.0
10,195.8764694434918
11,1.0
12,195.8764694434918
13,1155.986149826715
14,3.573105388056692
15,3.139926922502282
16,3.113174375738481
17,-6.766748221473449
18,3.202864358307625
2,1, 1, 1, 0, 9, 0.00,15.00,Tuesday
7,-9.725
8,1675.954902824936
9,1.0
10,278.97248314719988
11,1.0
12,278.97248314719988
13,1675.954902824936
14,3.9580687937484626
15,8.309778623727134
16,4.636321718078875
17,-5.681089492249669
18,3.3598034440173967
2,1, 1, 1, 0, 9,15.00,30.00,Tuesday
7,-9.45
8,2225.1221149413897
9,1.0
10,364.91995730569456
11,1.0
12,364.91995730569456
13,2225.1221149413897
14,4.376004149111153
15,13.390029136708624
16,6.116242229115073
17,-4.607103080383467
18,3.5598534045501437
2,1, 1, 1, 0, 9,30.00,45.00,Tuesday
7,-9.175
8,2589.9181061190345
9,1.0
10,420.35879993239237
11,1.0
12,420.35879993239237
13,2589.9181061190345
14,4.667280365310835
15,16.148040290756499
16,7.103313505167648
17,-3.9452830703153269
18,3.783373817758672
2,1, 1, 1, 0, 9,45.00,60.00,Tuesday
7,-8.9
8,2969.154614094388
9,1.0
10,478.00138373643099
11,1.0
12,478.00138373643099
13,2969.154614094388
14,5.009763320785236
15,19.14306714131799
16,8.087878360915966
17,-3.2601420739488278
18,4.020141743399077
2,1, 1, 1, 0,10, 0.00,15.00,Tuesday
7,-8.350000000000002
8,3356.956951469352
9,1.0
10,536.9185644770597
11,1.0
12,536.9185644770597
13,3356.956951469352
14,5.296779195904796
15,20.260877527051617
16,9.09899865275986
17,-2.5458902868595034
18,4.270508706053321
2,1, 1, 1, 0,10,15.00,30.00,Tuesday
7,-7.800000000000001
8,3758.6021027564327
9,1.0
10,598.0969199229219
11,1.0
12,598.0969199229219
13,3758.6021027564327
14,5.610903837299497
15,21.514047837732517
16,10.126580125447959
17,-1.8349110710029209
18,4.543884519073962
2,1, 1, 1, 0,10,30.00,45.00,Tuesday
7,-7.25
8,4023.4343423766129
9,1.0
10,637.6133352894237
11,1.0
12,637.6133352894237
13,4023.4343423766129
14,5.853218210296965
15,21.57398388271725
16,10.8603968891681
17,-1.34284922023312
18,4.826383824495608
2,1, 1, 1, 0,10,45.00,60.00,Tuesday
7,-6.7
8,4284.569137465867
9,1.0
10,676.6412284283772
11,1.0
12,676.6412284283772
13,4284.569137465867
14,6.117912796656393
15,21.734340296388728
16,11.56837607905993
17,-0.854279319643183
18,5.106343442397613
2,1, 1, 1, 0,11, 0.00,15.00,Tuesday
7,-6.275
8,4541.069932457524
9,1.0
10,715.0112779846514
11,1.0
12,715.0112779846514
13,4541.069932457524
14,6.459114475097248
15,23.83212841470918
16,12.317577138165348
17,-0.13124832261701159
18,5.38582659014486
2,1, 1, 1, 0,11,15.00,30.00,Tuesday
7,-5.85
8,4791.561082856165
9,1.0
10,752.5077794605232
11,1.0
12,752.5077794605232
13,4791.561082856165
14,6.788954378741035
15,25.76731002007558
16,13.05834627237141
17,0.5712554280818267
18,5.669070755185724
2,1, 1, 1, 0,11,30.00,45.00,Tuesday
7,-5.425
8,4719.295702442719
9,1.0
10,742.5988714321785
11,1.0
12,742.5988714321785
13,4719.295702442719
14,6.983972904319759
15,25.619248145836015
16,13.19778170757138
17,0.8575719286058074
18,5.938626339030302
2,1, 1, 1, 0,11,45.00,60.00,Tuesday
7,-5.0
8,4614.872852167027
9,1.0
10,727.8169025450712
11,1.0
12,727.8169025450712
13,4614.872852167027
14,7.174364501291923
15,25.390222351786023
16,13.249293081865858
17,1.1112774621688005
18,6.181622006021383
2,1, 1, 1, 0,12, 0.00,15.00,Tuesday
7,-4.575
8,4434.457749022842
9,1.0
10,700.3759009170325
11,1.0
12,700.3759009170325
13,4434.457749022842
14,7.307218909098617
15,24.647755278446007
16,13.141960188196834
17,1.3014530354208774
18,6.39091742247963
2,1, 1, 1, 0,12,15.00,30.00,Tuesday
7,-4.15
8,4299.86405120887
9,1.0
10,681.6705029034473
11,1.0
12,681.6705029034473
13,4299.86405120887
14,7.462064218385762
15,24.317452588091105
16,13.124715424621059
17,1.5644768562865466
18,6.57423706703461
2,1, 1, 1, 0,12,30.00,45.00,Tuesday
7,-3.7249999999999998
8,3773.79930992352
9,1.0
10,602.01865277251
11,1.0
12,602.01865277251
13,3773.79930992352
14,7.382366274578349
15,21.289173112438637
16,12.327799377144402
17,1.3220285517072626
18,6.710254342140497
2,1, 1, 1, 0,12,45.00,60.00,Tuesday
7,-3.3
8,3081.3913180504725
9,1.0
10,493.55004396206007
11,1.0
12,493.55004396206007
13,3081.3913180504725
14,7.19262335474095
15,17.110827322635815
16,11.059519276317701
17,0.8142526405698618
18,6.775116728722474
2,1, 1, 1, 0,13, 0.00,15.00,Tuesday
7,-3.0249999999999996
8,2542.246012599863
9,1.0
10,412.335026418112
11,1.0
12,412.335026418112
13,2542.246012599863
14,7.05972493404547
15,14.266630084028252
16,10.058190023022917
17,0.46950423233016638
18,6.783083899409412
2,1, 1, 1, 0,13,15.00,30.00,Tuesday
7,-2.75
8,1860.23444956308
9,1.0
10,305.94037763660148
11,1.0
12,305.94037763660148
13,1860.23444956308
14,6.765725381108682
15,10.093446685616128
16,8.667407704937319
17,-0.11636912503854546
18,6.7431976147624959
2,1, 1, 1, 0,13,30.00,45.00,Tuesday
7,-2.475
8,1697.4353323012043
9,1.0
10,281.0763483922329
11,1.0
12,281.0763483922329
13,1697.4353323012043
14,6.741631880200759
15,9.58024839112527
16,8.339940128259059
17,-0.009806248465565659
18,6.690652510636647
2,1, 1, 1, 0,13,45.00,60.00,Tuesday
7,-2.2
8,1538.0312200613792
9,1.0
10,256.7721209415886
11,1.0
12,256.7721209415886
13,1538.0312200613792
14,6.708984045184019
15,8.97399139899021
16,8.081649969638989
17,0.12125344761409451
18,6.645566587558545
2,1, 1, 1, 0,14, 0.00,15.00,Tuesday
7,-1.9250000000000003
8,1255.8496478375765
9,1.0
10,210.73276284570657
11,1.0
12,210.73276284570657
13,1255.8496478375765
14,6.579493304136809
15,7.42616593969455
16,7.482656448702983
17,0.019271570815249107
18,6.604650023869281
2,1, 1, 1, 0,14,15.00,30.00,Tuesday
7,-1.6500000000000002
8,1114.6827197017845
9,1.0
10,189.38488290342594
11,1.0
12,189.38488290342594
13,1114.6827197017845
14,6.548175443835915
15,7.021121570291967
16,7.2104728976087248
17,0.1276004087177398
18,6.568617008538639
2,1, 1, 1, 0,14,30.00,45.00,Tuesday
7,-1.375
8,1063.2423972936929
9,1.0
10,179.3940297802914
11,1.0
12,179.3940297802914
13,1063.2423972936929
14,6.54407265754074
15,7.143705185709569
16,7.143097394747656
17,0.35210809280994229
18,6.538974050389814
2,1, 1, 1, 0,14,45.00,60.00,Tuesday
7,-1.1
8,1011.0846428393131
9,1.0
10,169.43349014176136
11,1.0
12,169.43349014176136
13,1011.0846428393131
14,6.537615611042635
15,7.242368050014973
16,7.070910093209989
17,0.5748882913280795
18,6.515500283901034
2,1, 1, 1, 0,15, 0.00,15.00,Tuesday
7,-1.1
8,1063.9153487896957
9,1.0
10,178.15692317953907
11,1.0
12,178.15692317953907
13,1063.9153487896957
14,6.595470386926503
15,8.059845847413558
16,7.216125769119344
17,0.7147076517939013
18,6.501237289360964
2,1, 1, 1, 0,15,15.00,30.00,Tuesday
7,-1.1
8,999.2994616327587
9,1.0
10,166.40516310952945
11,1.0
12,166.40516310952945
13,999.2994616327587
14,6.549262857518965
15,7.6962415210662
16,7.056588341378983
17,0.6479550978285715
18,6.490814678699915
2,1, 1, 1, 0,15,30.00,45.00,Tuesday
7,-1.1
8,842.1280757036714
9,1.0
10,140.8967369711617
11,1.0
12,140.8967369711617
13,842.1280757036714
14,6.439684704576346
15,6.489159347543444
16,6.630093128329577
17,0.4038432368590179
18,6.473262867967699
2,1, 1, 1, 0,15,45.00,60.00,Tuesday
7,-1.1
8,692.6210156018735
9,1.0
10,116.57355796743004
11,1.0
12,116.57355796743004
13,692.6210156018735
14,6.328701267691552
15,5.279568238003488
16,6.1840561314463688
17,0.14578309699732018
18,6.4400511793092509
2,1, 1, 1, 0,16, 0.00,15.00,Tuesday
7,-1.1
8,549.4135041585396
9,1.0
10,93.14939272689483
11,1.0
12,93.14939272689483
13,549.4135041585396
14,6.232993607778028
15,4.228599244149932
16,5.796365016094455
17,-0.032702874876804347
18,6.389861388187242
2,1, 1, 1, 0,16,15.00,30.00,Tuesday
7,-1.1
8,340.87706171594535
9,1.0
10,57.94047897402063
11,1.0
12,57.94047897402063
13,340.87706171594535
14,6.050763659775086
15,2.1027314984677165
16,5.215342151367224
17,-0.3813949421169127
18,6.316187325100515
2,1, 1, 1, 0,16,30.00,45.00,Tuesday
7,-1.1
8,264.1604785373081
9,1.0
10,45.38251793443488
11,1.0
12,45.38251793443488
13,264.1604785373081
14,5.980429448799817
15,1.4903435256615732
16,4.972924257664374
17,-0.4586426839081241
18,6.2285807553082359
2,1, 1, 1, 0,16,45.00,60.00,Tuesday
7,-1.1
8,184.328262173204
9,1.0
10,32.02625108222755
11,1.0
12,32.02625108222755
13,184.328262173204
14,5.873750658034938
15,0.624856434277612
16,4.7385353316797709
17,-0.5477014749665159
18,6.137974654425539
2,1, 1, 1, 0,17, 0.00,15.00,Tuesday
7,-1.1
8,101.08120563324523
9,1.0
10,17.762198626050539
11,1.0
12,17.762198626050539
13,101.08120563324523
14,5.738473688005106
15,-0.6294674114197488
16,4.446266523017698
17,-0.7562201520775034
18,6.046128933484597
2,1, 1, 1, 0,17,15.00,30.00,Tuesday
7,-1.1
8,0.0
9,0.0
10,0.0
11,0.0
12,0.0
13,0.0
14,5.555099113844832
15,-2.4680140466474556
16,4.078151465774113
17,-1.0656925216862874
18,5.943490888796926
2,1, 1, 1, 0,17,30.00,45.00,Tuesday
7,-1.1
8,0.0
9,0.0
10,0.0
11,0.0
12,0.0
13,0.0
14,5.50119503418877
15,-2.6052100993893156
16,3.988149712198606
17,-1.0896936987932123
18,5.844094829837399
2,1, 1, 1, 0,17,45.00,60.00,Tuesday
7,-1.1
8,0.0
9,0.0
10,0.0
11,0.0
12,0.0
13,0.0
14,5.432663091400772
15,-2.798531536617603
16,3.9385843679999086
17,-1.1001230751206777
18,5.760742123105664
2,1, 1, 1, 0,18, 0.00,15.00,Tuesday
7,-1.25
8,0.0
9,0.0
10,0.0
11,0.0
12,0.0
13,0.0
14,5.375681135251244
15,-2.9460581736923365
16,3.8501236184661709
17,-1.2373058914697595
18,5.694317689656187
2,1, 1, 1, 0,18,15.00,30.00,Tuesday
7,-1.4
8,0.0
9,0.0
10,0.0
11,0.0
12,0.0
13,0.0
14,5.323920773071317
15,-3.0984542961099197
16,3.7776705112360107
17,-1.3659927711271394
18,5.639926094256921
2,1, 1, 1, 0,18,30.00,45.00,Tuesday
7,-1.5499999999999999
8,0.0
9,0.0
10,0.0
11,0.0
12,0.0
13,0.0
14,5.276426072627546
15,-3.2503446232387218
16,3.709548623564615
17,-1.493729738531215
18,5.592365291178231
2,1, 1, 1, 0,18,45.00,60.00,Tuesday
7,-1.7
8,0.0
9,0.0
10,0.0
11,0.0
12,0.0
13,0.0
14,5.231061117335144
15,-3.4024040299474924
16,3.6443358849564335
17,-1.6208099499939977
18,5.5482365138969949
2,1, 1, 1, 0,19, 0.00,15.00,Tuesday
7,-1.825
8,0.0
9,0.0
10,0.0
11,0.0
12,0.0
13,0.0
14,5.211410108250425
15,-3.25150168310554
16,3.584591715937222
17,-1.7305548823742357
18,5.509376674355541
2,1, 1, 1, 0,19,15.00,30.00,Tuesday
7,-1.9500000000000002
8,0.0
9,0.0
10,0.0
11,0.0
12,0.0
13,0.0
14,5.19084605084176
15,-3.1823604153638027
16,3.5333904754360789
17,-1.8417469780628153
18,5.477507869507531
2,1, 1, 1, 0,19,30.00,45.00,Tuesday
7,-2.075
8,0.0
9,0.0
10,0.0
11,0.0
12,0.0
13,0.0
14,5.165558668259014
15,-3.255509598504599
16,3.4885557629116876
17,-1.947265457216531
18,5.451096686075789
2,1, 1, 1, 0,19,45.00,60.00,Tuesday
7,-2.2
8,0.0
9,0.0
10,0.0
11,0.0
12,0.0
13,0.0
14,5.1433320283211139
15,-3.2312214126932714
16,3.441124161223911
17,-2.060401427535794
18,5.427100442823377
2,1, 1, 1, 0,20, 0.00,15.00,Tuesday
7,-1.9250000000000003
8,0.0
9,0.0
10,0.0
11,0.0
12,0.0
13,0.0
14,5.137813080516148
15,-2.929532856462592
16,3.4860630155618539
17,-1.84995580826876
18,5.405909376743103
2,1, 1, 1, 0,20,15.00,30.00,Tuesday
7,-1.6500000000000002
8,0.0
9,0.0
10,0.0
11,0.0
12,0.0
13,0.0
14,5.131997650394972
15,-2.6309187892133325
16,3.5314729011374768
17,-1.6262327659137555
18,5.387954780290102
2,1, 1, 1, 0,20,30.00,45.00,Tuesday
7,-1.375
8,0.0
9,0.0
10,0.0
11,0.0
12,0.0
13,0.0
14,5.127913372762288
15,-2.3335760659018836
16,3.578366551603324
17,-1.3999824230703553
18,5.372810238372462
2,1, 1, 1, 0,20,45.00,60.00,Tuesday
7,-1.1
8,0.0
9,0.0
10,0.0
11,0.0
12,0.0
13,0.0
14,5.125361452274487
15,-2.0375219315109507
16,3.6272683693422325
17,-1.171585744448123
18,5.359787275522331
2,1, 1, 1, 0,21, 0.00,15.00,Tuesday
7,-1.25
8,0.0
9,0.0
10,0.0
11,0.0
12,0.0
13,0.0
14,5.080094568914695
15,-2.3207282608709827
16,3.582090910832335
17,-1.2775793408294476
18,5.342151979318588
2,1, 1, 1, 0,21,15.00,30.00,Tuesday
7,-1.4
8,0.0
9,0.0
10,0.0
11,0.0
12,0.0
13,0.0
14,5.036185898923778
15,-2.5383770577132647
16,3.5277310770658234
17,-1.3918743036706474
18,5.315228093948609
2,1, 1, 1, 0,21,30.00,45.00,Tuesday
7,-1.5499999999999999
8,0.0
9,0.0
10,0.0
11,0.0
12,0.0
13,0.0
14,4.9786196110166289
15,-2.8854577144847814
16,3.4722263024880819
17,-1.5016828351206187
18,5.2780365678438418
2,1, 1, 1, 0,21,45.00,60.00,Tuesday
7,-1.7
8,0.0
9,0.0
10,0.0
11,0.0
12,0.0
13,0.0
14,4.9157016717223549
15,-3.340523366603449
16,3.4113479148243757
17,-1.6026342021268648
18,5.232703465172558
2,1, 1, 1, 0,22, 0.00,15.00,Tuesday
7,-1.5499999999999999
8,0.0
9,0.0
10,0.0
11,0.0
12,0.0
13,0.0
14,4.923321789179904
15,-2.849267549455087
16,3.400016011435639
17,-1.5207217062945802
18,5.192980744007701
2,1, 1, 1, 0,22,15.00,30.00,Tuesday
7,-1.4
8,0.0
9,0.0
10,0.0
11,0.0
12,0.0
13,0.0
14,4.919896467734155
15,-2.5166442062755536
16,3.4178680032418358
17,-1.4139253592379078
18,5.166240841956478
2,1, 1, 1, 0,22,30.00,45.00,Tuesday
7,-1.25
8,0.0
9,0.0
10,0.0
11,0.0
12,0.0
13,0.0
14,4.9157134838405789
15,-2.295388645194141
16,3.4382248660250527
17,-1.300307975643591
18,5.150285518915745
2,1, 1, 1, 0,22,45.00,60.00,Tuesday
7,-1.1
8,0.0
9,0.0
10,0.0
11,0.0
12,0.0
13,0.0
14,4.915497263946305
15,-2.01084456209727
16,3.4625660057276947
17,-1.1803524047130623
18,5.139957310324559
2,1, 1, 1, 0,23, 0.00,15.00,Tuesday
7,-1.25
8,0.0
9,0.0
10,0.0
11,0.0
12,0.0
13,0.0
14,4.86989467937501
15,-2.314281203868913
16,3.3733474428948968
17,-1.453940026011935
18,5.124793040041198
2,1, 1, 1, 0,23,15.00,30.00,Tuesday
7,-1.4
8,0.0
9,0.0
10,0.0
11,0.0
12,0.0
13,0.0
14,4.8270445573379379
15,-2.6188578247788976
16,3.272361580854067
17,-1.7472895254845753
18,5.099511481386169
2,1, 1, 1, 0,23,30.00,45.00,Tuesday
7,-1.5499999999999999
8,0.0
9,0.0
10,0.0
11,0.0
12,0.0
13,0.0
14,4.779695290748974
15,-2.9240902222886424
16,3.170596329926525
17,-2.039196379437385
18,5.065097429185545
2,1, 1, 1, 0,23,45.00,60.00,Tuesday
7,-1.7
8,0.0
9,0.0
10,0.0
11,0.0
12,0.0
13,0.0
14,4.728481739728223
15,-3.2296656437335624
16,3.0651839409168248
17,-2.331641657885143
18,5.024465935907948
2,1, 1, 1, 0,24, 0.00,15.00,Tuesday
7,-1.7
8,0.0
9,0.0
10,0.0
11,0.0
12,0.0
13,0.0
14,4.694598866256787
15,-3.2836288397861046
16,3.018672248209782
17,-2.3935839035473807
18,4.983267789639798
2,1, 1, 1, 0,24,15.00,30.00,Tuesday
7,-1.7
8,0.0
9,0.0
10,0.0
11,0.0
12,0.0
13,0.0
14,4.656613785994442
15,-3.33828346165913
16,2.9763802030754507
17,-2.4540235126151517
18,4.944386019530308
2,1, 1, 1, 0,24,30.00,45.00,Tuesday
7,-1.7
8,0.0
9,0.0
10,0.0
11,0.0
12,0.0
13,0.0
14,4.62164439495391
15,-3.392752041384253
16,2.933295660584349
17,-2.5146457741152519
18,4.907970311229458
2,1, 1, 1, 0,24,45.00,60.00,Tuesday
7,-1.7
8,0.0
9,0.0
10,0.0
11,0.0
12,0.0
13,0.0
14,4.586333012744745
15,-3.4473068040965808
16,2.8916461112996787
17,-2.5748452414522378
18,4.873079002166836
End of Data
 Number of Records Written=        1152
