Program Version,EnergyPlus, Version 9.5.0-de239b2e5f, YMD=2023.02.16 21:09
1,5,Environment Title[],Latitude[deg],Longitude[deg],Time Zone[],Elevation[m]
2,8,Day of Simulation[],Month[],Day of Month[],DST Indicator[1=yes 0=no],Hour[],StartMinute[],EndMinute[],DayType
3,5,Cumulative Day of Simulation[],Month[],Day of Month[],DST Indicator[1=yes 0=no],DayType  ! When Daily Report Variables Requested
4,2,Cumulative Days of Simulation[],Month[]  ! When Monthly Report Variables Requested
5,1,Cumulative Days of Simulation[] ! When Run Period Report Variables Requested
6,1,Calendar Year of Simulation[] ! When Annual Report Variables Requested
7,1,Environment,Site Outdoor Air Drybulb Temperature [C] !TimeStep
8,1,ZONE ONE,Zone Windows Total Transmitted Solar Radiation Rate [W] !TimeStep
9,1,ZN001:WALL001,Surface Outside Face Sunlit Fraction [] !TimeStep
10,1,ZN001:WALL001,Surface Outside Face Incident Solar Radiation Rate per Area [W/m2] !TimeStep
11,1,ZN001:WALL001:WIN001,Surface Outside Face Sunlit Fraction [] !TimeStep
12,1,ZN001:WALL001:WIN001,Surface Outside Face Incident Solar Radiation Rate per Area [W/m2] !TimeStep
13,1,ZN001:WALL001:WIN001,Surface Window Transmitted Solar Radiation Rate [W] !TimeStep
14,1,ZN001:WALL001,Surface Inside Face Temperature [C] !TimeStep
15,1,ZN001:WALL001,Surface Outside Face Temperature [C] !TimeStep
16,1,ZN001:WALL001:WIN001,Surface Inside Face Temperature [C] !TimeStep
17,1,ZN001:WALL001:WIN001,Surface Outside Face Temperature [C] !TimeStep
18,1,ZONE ONE,Zone Mean Air Temperature [C] !TimeStep
End of Data Dictionary
1,RUN PERIOD 1,  41.98, -87.92,  -6.00, 201.00
2,1, 1, 1, 0, 1, 0.00,15.00,Tuesday
7,-4.324999999999999
8,0.0
9,0.0
10,0.0
11,0.0
12,0.0
13,0.0
14,6.574455989713878
15,-5.884202800854164
16,4.461311651024289
17,-4.519126452729552
18,7.055943072514388
2,1, 1, 1, 0, 1,15.00,30.00,Tuesday
7,-6.949999999999999
8,0.0
9,0.0
10,0.0
11,0.0
12,0.0
13,0.0
14,6.393210841032516
15,-8.351485585489059
16,3.913448715056461
17,-6.650250999953357
18,6.95841903636141
2,1, 1, 1, 0, 1,30.00,45.00,Tuesday
7,-9.575
8,0.0
9,0.0
10,0.0
11,0.0
12,0.0
13,0.0
14,6.19248119310494
15,-10.826695456648107
16,3.359463386113191
17,-8.787877222837722
18,6.830082049837981
2,1, 1, 1, 0, 1,45.00,60.00,Tuesday
7,-12.2
8,0.0
9,0.0
10,0.0
11,0.0
12,0.0
13,0.0
14,5.976313312562569
15,-13.308527464472049
16,2.790596759895834
17,-10.933087669012594
18,6.680368483520017
2,1, 1, 1, 0, 2, 0.00,15.00,Tuesday
7,-12.075
8,0.0
9,0.0
10,0.0
11,0.0
12,0.0
13,0.0
14,5.9077507484126239
15,-13.109377340114837
16,2.711742340721173
17,-10.770793529820367
18,6.545087833916793
2,1, 1, 1, 0, 2,15.00,30.00,Tuesday
7,-11.95
8,0.0
9,0.0
10,0.0
11,0.0
12,0.0
13,0.0
14,5.825698240165676
15,-12.932323464374733
16,2.6718690485548679
17,-10.62037132939156
18,6.440776145230705
2,1, 1, 1, 0, 2,30.00,45.00,Tuesday
7,-11.825
8,0.0
9,0.0
10,0.0
11,0.0
12,0.0
13,0.0
14,5.760358966897494
15,-12.754131824602828
16,2.637251948512244
17,-10.469691046815
18,6.362184244284647
2,1, 1, 1, 0, 2,45.00,60.00,Tuesday
7,-11.7
8,0.0
9,0.0
10,0.0
11,0.0
12,0.0
13,0.0
14,5.705893219716227
15,-12.576021762675098
16,2.615199338792877
17,-10.316769737027812
18,6.298601342596147
2,1, 1, 1, 0, 3, 0.00,15.00,Tuesday
7,-11.549999999999999
8,0.0
9,0.0
10,0.0
11,0.0
12,0.0
13,0.0
14,5.652992894325428
15,-12.449410847193782
16,2.6024742004007637
17,-10.178902939395812
18,6.241377316290205
2,1, 1, 1, 0, 3,15.00,30.00,Tuesday
7,-11.399999999999999
8,0.0
9,0.0
10,0.0
11,0.0
12,0.0
13,0.0
14,5.603099214110145
15,-12.324143470548178
16,2.585399258404209
17,-10.021892980679013
18,6.186172889774241
2,1, 1, 1, 0, 3,30.00,45.00,Tuesday
7,-11.25
8,0.0
9,0.0
10,0.0
11,0.0
12,0.0
13,0.0
14,5.554078766581198
15,-12.200374457346955
16,2.5761335453805147
17,-9.883055079895826
18,6.1318568427301589
2,1, 1, 1, 0, 3,45.00,60.00,Tuesday
7,-11.1
8,0.0
9,0.0
10,0.0
11,0.0
12,0.0
13,0.0
14,5.505434212040082
15,-12.07815451843015
16,2.5613505923972186
17,-9.726461820076452
18,6.078252344797342
2,1, 1, 1, 0, 4, 0.00,15.00,Tuesday
7,-11.1
8,0.0
9,0.0
10,0.0
11,0.0
12,0.0
13,0.0
14,5.4531722699628439
15,-12.050464251717598
16,2.508310007697787
17,-9.75934814663026
18,6.02462986136546
2,1, 1, 1, 0, 4,15.00,30.00,Tuesday
7,-11.1
8,0.0
9,0.0
10,0.0
11,0.0
12,0.0
13,0.0
14,5.401307249049931
15,-12.023835522847277
16,2.4577641453176968
17,-9.791276177119699
18,5.970683835897972
2,1, 1, 1, 0, 4,30.00,45.00,Tuesday
7,-11.1
8,0.0
9,0.0
10,0.0
11,0.0
12,0.0
13,0.0
14,5.349310276613877
15,-11.99870502783643
16,2.407539376743614
17,-9.822268091623642
18,5.91650369336473
2,1, 1, 1, 0, 4,45.00,60.00,Tuesday
7,-11.1
8,0.0
9,0.0
10,0.0
11,0.0
12,0.0
13,0.0
14,5.297272388536483
15,-11.974944317517279
16,2.357489347994715
17,-9.852290396436957
18,5.862270361528972
2,1, 1, 1, 0, 5, 0.00,15.00,Tuesday
7,-10.975
8,0.0
9,0.0
10,0.0
11,0.0
12,0.0
13,0.0
14,5.250781772367351
15,-11.853025312099641
16,2.3391165258427124
17,-9.762807404316959
18,5.809104483975346
2,1, 1, 1, 0, 5,15.00,30.00,Tuesday
7,-10.85
8,0.0
9,0.0
10,0.0
11,0.0
12,0.0
13,0.0
14,5.20449309204384
15,-11.731174514591635
16,2.3191203363741694
17,-9.665348641432388
18,5.757466532979175
2,1, 1, 1, 0, 5,30.00,45.00,Tuesday
7,-10.725
8,0.0
9,0.0
10,0.0
11,0.0
12,0.0
13,0.0
14,5.159197813376097
15,-11.609301972367126
16,2.299467086782556
17,-9.56712970667104
18,5.707145536861437
2,1, 1, 1, 0, 5,45.00,60.00,Tuesday
7,-10.6
8,0.0
9,0.0
10,0.0
11,0.0
12,0.0
13,0.0
14,5.114731770187196
15,-11.48743911825914
16,2.28061497858306
17,-9.468713653230396
18,5.657786610705682
2,1, 1, 1, 0, 6, 0.00,15.00,Tuesday
7,-10.6
8,0.0
9,0.0
10,0.0
11,0.0
12,0.0
13,0.0
14,5.063379463765979
15,-11.488438341562653
16,2.2361812591326499
17,-9.469116833291537
18,5.607845450902793
2,1, 1, 1, 0, 6,15.00,30.00,Tuesday
7,-10.6
8,0.0
9,0.0
10,0.0
11,0.0
12,0.0
13,0.0
14,5.012659822460629
15,-11.48938791923635
16,2.192422890066098
17,-9.476280617181829
18,5.556631813995886
2,1, 1, 1, 0, 6,30.00,45.00,Tuesday
7,-10.6
8,0.0
9,0.0
10,0.0
11,0.0
12,0.0
13,0.0
14,4.961419156708868
15,-11.490379066280902
16,2.1488144822710639
17,-9.483990572363325
18,5.50441789996582
2,1, 1, 1, 0, 6,45.00,60.00,Tuesday
7,-10.6
8,0.0
9,0.0
10,0.0
11,0.0
12,0.0
13,0.0
14,4.909879068379707
15,-11.491368127155184
16,2.104843552326031
17,-9.491826595103135
18,5.451704370472299
2,1, 1, 1, 0, 7, 0.00,15.00,Tuesday
7,-10.6
8,0.0
9,0.0
10,0.0
11,0.0
12,0.0
13,0.0
14,4.860311028056479
15,-11.468473624286589
16,2.056002865243329
17,-9.51718318412918
18,5.39916895957468
2,1, 1, 1, 0, 7,15.00,30.00,Tuesday
7,-10.6
8,0.0
9,0.0
10,0.0
11,0.0
12,0.0
13,0.0
14,4.810638630260281
15,-11.446765251329696
16,2.0088658978282298
17,-9.542655952045039
18,5.34715576458642
2,1, 1, 1, 0, 7,30.00,45.00,Tuesday
7,-10.6
8,0.0
9,0.0
10,0.0
11,0.0
12,0.0
13,0.0
14,4.7612735199520179
15,-11.426162237592763
16,1.9621122650074768
17,-9.567407620119127
18,5.2956378574889009
2,1, 1, 1, 0, 7,45.00,60.00,Tuesday
7,-10.6
8,0.0
9,0.0
10,0.0
11,0.0
12,0.0
13,0.0
14,4.7122169735389589
15,-11.406599112712059
16,1.9158207537263934
17,-9.591329850043849
18,5.244493499615235
2,1, 1, 1, 0, 8, 0.00,15.00,Tuesday
7,-10.45
8,0.0
9,0.0
10,0.0
11,0.0
12,0.0
13,0.0
14,4.662569729587232
15,-11.357125342242073
16,1.8896939481141999
17,-9.54106126320039
18,5.19333499596933
2,1, 1, 1, 0, 8,15.00,30.00,Tuesday
7,-10.3
8,164.70730277996078
9,1.0
10,22.819555959623899
11,1.0
12,22.819555959623899
13,164.70730277996078
14,4.734009578170244
15,-9.68343344007887
16,2.181846805432542
17,-9.219259475590377
18,5.160586732196765
2,1, 1, 1, 0, 8,30.00,45.00,Tuesday
7,-10.15
8,808.7145075753374
9,1.0
10,109.75755355442667
11,1.0
12,109.75755355442667
13,808.7145075753374
14,5.1355704543633788
15,-3.3115358731448074
16,3.4439909453627708
17,-8.122666502501602
18,5.197685582547247
2,1, 1, 1, 0, 8,45.00,60.00,Tuesday
7,-10.0
8,1470.5605139501664
9,1.0
10,195.8764694434918
11,1.0
12,195.8764694434918
13,1470.5605139501664
14,5.639748396186987
15,3.1652530115875208
16,4.855918931825272
17,-7.018089101020678
18,5.3120247061122429
2,1, 1, 1, 0, 9, 0.00,15.00,Tuesday
7,-9.725
8,2130.1268679617157
9,1.0
10,278.97248314719988
11,1.0
12,278.97248314719988
13,2130.1268679617157
14,6.080172032094617
15,8.347440976891589
16,6.308613555869329
17,-6.035912920380611
18,5.480553458639705
2,1, 1, 1, 0, 9,15.00,30.00,Tuesday
7,-9.45
8,2825.385387072841
9,1.0
10,364.91995730569456
11,1.0
12,364.91995730569456
13,2825.385387072841
14,6.52543819574276
15,13.422652853569656
16,7.708828746364247
17,-5.0460830161734979
18,5.694688313381713
2,1, 1, 1, 0, 9,30.00,45.00,Tuesday
7,-9.175
8,3285.3657815806207
9,1.0
10,420.35879993239237
11,1.0
12,420.35879993239237
13,3285.3657815806207
14,6.842553417024242
15,16.180023907901803
16,8.659650824438188
17,-4.435287627052389
18,5.9344281906659079
2,1, 1, 1, 0, 9,45.00,60.00,Tuesday
7,-8.9
8,3762.8630174369429
9,1.0
10,478.00138373643099
11,1.0
12,478.00138373643099
13,3762.8630174369429
14,7.214325579874319
15,19.174425598322025
16,9.603239641506207
17,-3.8025381603905545
18,6.189011127723244
2,1, 1, 1, 0,10, 0.00,15.00,Tuesday
7,-8.350000000000002
8,4250.448423053731
9,1.0
10,536.9185644770597
11,1.0
12,536.9185644770597
13,4250.448423053731
14,7.533666420514393
15,20.289972761770377
16,10.581921484134455
17,-3.1094872300704425
18,6.458405756571409
2,1, 1, 1, 0,10,15.00,30.00,Tuesday
7,-7.800000000000001
8,4754.8784400001809
9,1.0
10,598.0969199229219
11,1.0
12,598.0969199229219
13,4754.8784400001809
14,7.882420440668012
15,21.541468867929667
16,11.577391405908202
17,-2.4189346527652448
18,6.74856386636442
2,1, 1, 1, 0,10,30.00,45.00,Tuesday
7,-7.25
8,5085.790385716765
9,1.0
10,637.6133352894237
11,1.0
12,637.6133352894237
13,5085.790385716765
14,8.154253850299402
15,21.5997734688713
16,12.30528815814364
17,-1.9252281616880965
18,6.870928215325356
2,1, 1, 1, 0,10,45.00,60.00,Tuesday
7,-6.7
8,5411.8281742364
9,1.0
10,676.6412284283772
11,1.0
12,676.6412284283772
13,5411.8281742364
14,8.405417632052382
15,21.757623361855118
16,12.979567228335612
17,-1.4379961467298018
18,7.111133260273129
2,1, 1, 1, 0,11, 0.00,15.00,Tuesday
7,-6.275
8,5731.93450410702
9,1.0
10,715.0112779846514
11,1.0
12,715.0112779846514
13,5731.93450410702
14,8.704833414646725
15,23.854467252592185
16,13.654555738625959
17,-0.7450276688952044
18,7.296415466252679
2,1, 1, 1, 0,11,15.00,30.00,Tuesday
7,-5.85
8,6044.505928231053
9,1.0
10,752.5077794605232
11,1.0
12,752.5077794605232
13,6044.505928231053
14,9.069550686537378
15,25.79120003903493
16,14.357767412394196
17,-0.0681214736249558
18,7.729476889611993
2,1, 1, 1, 0,11,30.00,45.00,Tuesday
7,-5.425
8,5951.610197095371
9,1.0
10,742.5988714321785
11,1.0
12,742.5988714321785
13,5951.610197095371
14,9.349089771577022
15,25.6447319501149
16,14.563932606662263
17,0.23805741432363448
18,8.111904847961199
2,1, 1, 1, 0,11,45.00,60.00,Tuesday
7,-5.0
8,5818.873031211445
9,1.0
10,727.8169025450712
11,1.0
12,727.8169025450712
13,5818.873031211445
14,9.59135352005532
15,25.41569087204191
16,14.683681339164196
17,0.5149613871360543
18,8.43632354868695
2,1, 1, 1, 0,12, 0.00,15.00,Tuesday
7,-4.575
8,5590.605323962885
9,1.0
10,700.3759009170325
11,1.0
12,700.3759009170325
13,5590.605323962885
14,9.762305395808712
15,24.673535977252628
16,14.639855571205544
17,0.7378810510237486
18,8.709617372949712
2,1, 1, 1, 0,12,15.00,30.00,Tuesday
7,-4.15
8,5421.315289253884
9,1.0
10,681.6705029034473
11,1.0
12,681.6705029034473
13,5421.315289253884
14,9.919387078536415
15,24.34270040833043
16,14.647180448818063
17,1.022263808298021
18,8.94583435016683
2,1, 1, 1, 0,12,30.00,45.00,Tuesday
7,-3.7249999999999998
8,4759.463309286249
9,1.0
10,602.01865277251
11,1.0
12,602.01865277251
13,4759.463309286249
14,9.861189210209764
15,21.31536822994509
16,13.946898253506618
17,0.8533047958283078
18,9.123018488413229
2,1, 1, 1, 0,12,45.00,60.00,Tuesday
7,-3.3
8,3887.1134706147715
9,1.0
10,493.55004396206007
11,1.0
12,493.55004396206007
13,3887.1134706147715
14,9.671807878408242
15,17.13722509833688
16,12.801502399541619
17,0.44633372546229568
18,9.215766515267271
2,1, 1, 1, 0,13, 0.00,15.00,Tuesday
7,-3.0249999999999996
8,3209.574868603734
9,1.0
10,412.335026418112
11,1.0
12,412.335026418112
13,3209.574868603734
14,9.540710552777077
15,14.293648931247322
16,11.876860428942735
17,0.1739734450212609
18,9.241116138995901
2,1, 1, 1, 0,13,15.00,30.00,Tuesday
7,-2.75
8,2350.7180690914585
9,1.0
10,305.94037763660148
11,1.0
12,305.94037763660148
13,2350.7180690914585
14,9.231525865991192
15,10.120828551044913
16,10.592346697338713
17,-0.3129334658191283
18,9.209507494400305
2,1, 1, 1, 0,13,30.00,45.00,Tuesday
7,-2.475
8,2146.122384804586
9,1.0
10,281.0763483922329
11,1.0
12,281.0763483922329
13,2146.122384804586
14,9.202766026854662
15,9.608262733175293
16,10.269646934740877
17,-0.1797781168849042
18,9.16065973137878
2,1, 1, 1, 0,13,45.00,60.00,Tuesday
7,-2.2
8,1945.7887113955822
9,1.0
10,256.7721209415886
11,1.0
12,256.7721209415886
13,1945.7887113955822
14,9.169049232430777
15,9.00228828158129
16,10.02510028532771
17,-0.022487406522714083
18,9.118636445456211
2,1, 1, 1, 0,14, 0.00,15.00,Tuesday
7,-1.9250000000000003
8,1589.5114814468812
9,1.0
10,210.73276284570657
11,1.0
12,210.73276284570657
13,1589.5114814468812
14,9.023831236878897
15,7.454957022115729
16,9.464255648142114
17,-0.08430335993648441
18,9.080504661098369
2,1, 1, 1, 0,14,15.00,30.00,Tuesday
7,-1.6500000000000002
8,1411.9992818845379
9,1.0
10,189.38488290342594
11,1.0
12,189.38488290342594
13,1411.9992818845379
14,8.990317469140177
15,7.052425970414652
16,9.187185626673227
17,0.053554328123311737
18,9.046163910920903
2,1, 1, 1, 0,14,30.00,45.00,Tuesday
7,-1.375
8,1346.6477146256526
9,1.0
10,179.3940297802914
11,1.0
12,179.3940297802914
13,1346.6477146256526
14,8.98044522718316
15,7.175496275269336
16,9.120205525456186
17,0.29303158974528289
18,9.017321306825048
2,1, 1, 1, 0,14,45.00,60.00,Tuesday
7,-1.1
8,1280.5495415471219
9,1.0
10,169.43349014176136
11,1.0
12,169.43349014176136
13,1280.5495415471219
14,8.96715032803206
15,7.275286731988174
16,9.044987304039637
17,0.5307225740035051
18,8.993594914185769
2,1, 1, 1, 0,15, 0.00,15.00,Tuesday
7,-1.1
8,1347.8587297811799
9,1.0
10,178.15692317953907
11,1.0
12,178.15692317953907
13,1347.8587297811799
14,9.028889390776142
15,8.093846146919298
16,9.181673225984355
17,0.6603373253391283
18,8.978026361711536
2,1, 1, 1, 0,15,15.00,30.00,Tuesday
7,-1.1
8,1266.276259391967
9,1.0
10,166.40516310952945
11,1.0
12,166.40516310952945
13,1266.276259391967
14,8.97832263057194
15,7.731349270432636
16,9.034974565525772
17,0.6067128256585193
18,8.965711557969982
2,1, 1, 1, 0,15,30.00,45.00,Tuesday
7,-1.1
8,1067.701389865137
9,1.0
10,140.8967369711617
11,1.0
12,140.8967369711617
13,1067.701389865137
14,8.855587120960572
15,6.522289369510594
16,8.626746010593934
17,0.3856454632193618
18,8.94566395247449
2,1, 1, 1, 0,15,45.00,60.00,Tuesday
7,-1.1
8,878.6312280760801
9,1.0
10,116.57355796743004
11,1.0
12,116.57355796743004
13,878.6312280760801
14,8.747730315641155
15,5.319925538781036
16,8.237588868441606
17,0.1634582843713588
18,8.90734100745414
2,1, 1, 1, 0,16, 0.00,15.00,Tuesday
7,-1.1
8,697.3318727282369
9,1.0
10,93.14939272689483
11,1.0
12,93.14939272689483
13,697.3318727282369
14,8.641364698621498
15,4.269591996628427
16,7.886572396482052
17,0.026590743364977244
18,8.848994713070559
2,1, 1, 1, 0,16,15.00,30.00,Tuesday
7,-1.1
8,432.9048901425401
9,1.0
10,57.94047897402063
11,1.0
12,57.94047897402063
13,432.9048901425401
14,8.44581021905777
15,2.147512955211663
16,7.360182166920822
17,-0.26017980917958996
18,8.762863900925993
2,1, 1, 1, 0,16,30.00,45.00,Tuesday
7,-1.1
8,335.64270075152066
9,1.0
10,45.38251793443488
11,1.0
12,45.38251793443488
13,335.64270075152066
14,8.366262208785856
15,1.5389198375602063
16,7.12491546861429
17,-0.3124067824283543
18,8.664523432082805
2,1, 1, 1, 0,16,45.00,60.00,Tuesday
7,-1.1
8,234.3008415590897
9,1.0
10,32.02625108222755
11,1.0
12,32.02625108222755
13,234.3008415590897
14,8.248377318015134
15,0.6782833589100654
16,6.904980118409753
17,-0.3682281653154291
18,8.567806918869579
2,1, 1, 1, 0,17, 0.00,15.00,Tuesday
7,-1.1
8,128.5136834333092
9,1.0
10,17.762198626050539
11,1.0
12,17.762198626050539
13,128.5136834333092
14,8.10627768026806
15,-0.5693751210595893
16,6.63317299272444
17,-0.5391043085224965
18,8.47212237988591
2,1, 1, 1, 0,17,15.00,30.00,Tuesday
7,-1.1
8,0.0
9,0.0
10,0.0
11,0.0
12,0.0
13,0.0
14,7.91512514578486
15,-2.404908971467264
16,6.292902156903381
17,-0.8134190371024488
18,8.365163523327361
2,1, 1, 1, 0,17,30.00,45.00,Tuesday
7,-1.1
8,0.0
9,0.0
10,0.0
11,0.0
12,0.0
13,0.0
14,7.8564288642188579
15,-2.5391906580383396
16,6.198405598475347
17,-0.8119553208347838
18,8.26113216546458
2,1, 1, 1, 0,17,45.00,60.00,Tuesday
7,-1.1
8,0.0
9,0.0
10,0.0
11,0.0
12,0.0
13,0.0
14,7.782337338224295
15,-2.7271927399582864
16,6.1469894659441028
17,-0.7955050905120515
18,8.173458146344322
2,1, 1, 1, 0,18, 0.00,15.00,Tuesday
7,-1.25
8,0.0
9,0.0
10,0.0
11,0.0
12,0.0
13,0.0
14,7.7197568712192
15,-2.8754103472541527
16,6.058172397256271
17,-0.9382788450002977
18,8.102858686639586
2,1, 1, 1, 0,18,15.00,30.00,Tuesday
7,-1.4
8,0.0
9,0.0
10,0.0
11,0.0
12,0.0
13,0.0
14,7.6625930964952089
15,-3.027832631843272
16,5.9831104640582
17,-1.0717915166837316
18,8.044066384884536
2,1, 1, 1, 0,18,30.00,45.00,Tuesday
7,-1.5499999999999999
8,0.0
9,0.0
10,0.0
11,0.0
12,0.0
13,0.0
14,7.609697420278913
15,-3.1798349808320718
16,5.912513289247158
17,-1.2046053087839255
18,7.991686670157081
2,1, 1, 1, 0,18,45.00,60.00,Tuesday
7,-1.7
8,0.0
9,0.0
10,0.0
11,0.0
12,0.0
13,0.0
14,7.5588344767825819
15,-3.3320040163709105
16,5.844861785589103
17,-1.3367721505759392
18,7.9423380199488309
2,1, 1, 1, 0,19, 0.00,15.00,Tuesday
7,-1.825
8,0.0
9,0.0
10,0.0
11,0.0
12,0.0
13,0.0
14,7.532431509227063
15,-3.1892665085161204
16,5.7749486780244869
17,-1.4799916619497254
18,7.897906809586129
2,1, 1, 1, 0,19,15.00,30.00,Tuesday
7,-1.9500000000000002
8,0.0
9,0.0
10,0.0
11,0.0
12,0.0
13,0.0
14,7.504888112690985
15,-3.1272965899949307
16,5.716517771291592
17,-1.6165016677786639
18,7.860173804096611
2,1, 1, 1, 0,19,30.00,45.00,Tuesday
7,-2.075
8,0.0
9,0.0
10,0.0
11,0.0
12,0.0
13,0.0
14,7.4730687774574
15,-3.2023920529238589
16,5.6681100264867159
17,-1.7310695148939317
18,7.8276620500063249
2,1, 1, 1, 0,19,45.00,60.00,Tuesday
7,-2.2
8,0.0
9,0.0
10,0.0
11,0.0
12,0.0
13,0.0
14,7.444141646855418
15,-3.184404630819187
16,5.614200813166235
17,-1.863738359126387
18,7.79733122003119
2,1, 1, 1, 0,20, 0.00,15.00,Tuesday
7,-1.9250000000000003
8,0.0
9,0.0
10,0.0
11,0.0
12,0.0
13,0.0
14,7.430746628254573
15,-2.8842726495632999
16,5.644949967700995
17,-1.6497736695223467
18,7.769530418394164
2,1, 1, 1, 0,20,15.00,30.00,Tuesday
7,-1.6500000000000002
8,0.0
9,0.0
10,0.0
11,0.0
12,0.0
13,0.0
14,7.417772651636295
15,-2.5870343407568909
16,5.675566599677381
17,-1.4248518938156849
18,7.744773117319347
2,1, 1, 1, 0,20,30.00,45.00,Tuesday
7,-1.375
8,0.0
9,0.0
10,0.0
11,0.0
12,0.0
13,0.0
14,7.406504704210974
15,-2.2910349092366455
16,5.707378769173943
17,-1.1994776585964929
18,7.722723724318125
2,1, 1, 1, 0,20,45.00,60.00,Tuesday
7,-1.1
8,0.0
9,0.0
10,0.0
11,0.0
12,0.0
13,0.0
14,7.396751087990462
15,-1.9962574263806128
16,5.741257416470262
17,-0.9714904337495227
18,7.702738528460671
2,1, 1, 1, 0,21, 0.00,15.00,Tuesday
7,-1.25
8,0.0
9,0.0
10,0.0
11,0.0
12,0.0
13,0.0
14,7.347027389287867
15,-2.2729883938540604
16,5.699641341313054
17,-1.06232959147178
18,7.67820295761696
2,1, 1, 1, 0,21,15.00,30.00,Tuesday
7,-1.4
8,0.0
9,0.0
10,0.0
11,0.0
12,0.0
13,0.0
14,7.298024540577971
15,-2.4872197132999958
16,5.645113425213083
17,-1.1692792414412452
18,7.644545060882161
2,1, 1, 1, 0,21,30.00,45.00,Tuesday
7,-1.5499999999999999
8,0.0
9,0.0
10,0.0
11,0.0
12,0.0
13,0.0
14,7.235901255677476
15,-2.825700838307496
16,5.59258120501363
17,-1.2573319916499486
18,7.600934776283417
2,1, 1, 1, 0,21,45.00,60.00,Tuesday
7,-1.7
8,0.0
9,0.0
10,0.0
11,0.0
12,0.0
13,0.0
14,7.16847017767802
15,-3.2708866480179425
16,5.539608278658875
17,-1.3199530398280786
18,7.549605162822913
2,1, 1, 1, 0,22, 0.00,15.00,Tuesday
7,-1.5499999999999999
8,0.0
9,0.0
10,0.0
11,0.0
12,0.0
13,0.0
14,7.167852344895543
15,-2.7912431715099714
16,5.507308204615356
17,-1.2705268334281073
18,7.504073669498687
2,1, 1, 1, 0,22,15.00,30.00,Tuesday
7,-1.4
8,0.0
9,0.0
10,0.0
11,0.0
12,0.0
13,0.0
14,7.157234806733132
15,-2.466460091900547
16,5.509191838803133
17,-1.187566979091116
18,7.471532355276279
2,1, 1, 1, 0,22,30.00,45.00,Tuesday
7,-1.25
8,0.0
9,0.0
10,0.0
11,0.0
12,0.0
13,0.0
14,7.145796032203834
15,-2.2487539940640026
16,5.517660452063865
17,-1.0829645358742255
18,7.449570244007621
2,1, 1, 1, 0,22,45.00,60.00,Tuesday
7,-1.1
8,0.0
9,0.0
10,0.0
11,0.0
12,0.0
13,0.0
14,7.138347782033899
15,-1.970529214771167
16,5.526950872676821
17,-0.9812148740981002
18,7.43287497242977
2,1, 1, 1, 0,23, 0.00,15.00,Tuesday
7,-1.25
8,0.0
9,0.0
10,0.0
11,0.0
12,0.0
13,0.0
14,7.08725709092009
15,-2.273811412721646
16,5.443262487830282
17,-1.2632043764714354
18,7.410971329887295
2,1, 1, 1, 0,23,15.00,30.00,Tuesday
7,-1.4
8,0.0
9,0.0
10,0.0
11,0.0
12,0.0
13,0.0
14,7.03931740124475
15,-2.5784204071748877
16,5.3463384100238049
17,-1.5623698985735928
18,7.37888766765781
2,1, 1, 1, 0,23,30.00,45.00,Tuesday
7,-1.5499999999999999
8,0.0
9,0.0
10,0.0
11,0.0
12,0.0
13,0.0
14,6.986575028387799
15,-2.8837119876682806
16,5.2475684344364599
17,-1.863976689595063
18,7.337913184582709
2,1, 1, 1, 0,23,45.00,60.00,Tuesday
7,-1.7
8,0.0
9,0.0
10,0.0
11,0.0
12,0.0
13,0.0
14,6.929981235539795
15,-3.189343380258811
16,5.145619380228709
17,-2.162932740978249
18,7.291085623506082
2,1, 1, 1, 0,24, 0.00,15.00,Tuesday
7,-1.7
8,0.0
9,0.0
10,0.0
11,0.0
12,0.0
13,0.0
14,6.8891606761154
15,-3.243476117009804
16,5.0943516591686379
17,-2.2262945045709445
18,7.243887155154965
2,1, 1, 1, 0,24,15.00,30.00,Tuesday
7,-1.7
8,0.0
9,0.0
10,0.0
11,0.0
12,0.0
13,0.0
14,6.8462620010497929
15,-3.298192525836487
16,5.047491324187035
17,-2.288430540653792
18,7.19920513033731
2,1, 1, 1, 0,24,30.00,45.00,Tuesday
7,-1.7
8,0.0
9,0.0
10,0.0
11,0.0
12,0.0
13,0.0
14,6.804445992005365
15,-3.3528026893535447
16,5.000480389404288
17,-2.3505816153113985
18,7.156986250867104
2,1, 1, 1, 0,24,45.00,60.00,Tuesday
7,-1.7
8,0.0
9,0.0
10,0.0
11,0.0
12,0.0
13,0.0
14,6.763434303309969
15,-3.407416094974301
16,4.954391342399049
17,-2.4124610433935347
18,7.1162138174858369
End of Data
 Number of Records Written=        1152
