Program Version,EnergyPlus, Version 9.5.0-de239b2e5f, YMD=2023.02.17 18:13
1,5,Environment Title[],Latitude[deg],Longitude[deg],Time Zone[],Elevation[m]
2,8,Day of Simulation[],Month[],Day of Month[],DST Indicator[1=yes 0=no],Hour[],StartMinute[],EndMinute[],DayType
3,5,Cumulative Day of Simulation[],Month[],Day of Month[],DST Indicator[1=yes 0=no],DayType  ! When Daily Report Variables Requested
4,2,Cumulative Days of Simulation[],Month[]  ! When Monthly Report Variables Requested
5,1,Cumulative Days of Simulation[] ! When Run Period Report Variables Requested
6,1,Calendar Year of Simulation[] ! When Annual Report Variables Requested
7,1,Environment,Site Outdoor Air Drybulb Temperature [C] !TimeStep
8,1,ZONE ONE,Zone Windows Total Transmitted Solar Radiation Rate [W] !TimeStep
9,1,ZN001:WALL001,Surface Outside Face Sunlit Fraction [] !TimeStep
10,1,ZN001:WALL001,Surface Outside Face Incident Solar Radiation Rate per Area [W/m2] !TimeStep
11,1,ZN001:WALL001:WIN001,Surface Outside Face Sunlit Fraction [] !TimeStep
12,1,ZN001:WALL001:WIN001,Surface Outside Face Incident Solar Radiation Rate per Area [W/m2] !TimeStep
13,1,ZN001:WALL001:WIN001,Surface Window Transmitted Solar Radiation Rate [W] !TimeStep
14,1,ZN001:WALL001,Surface Inside Face Temperature [C] !TimeStep
15,1,ZN001:WALL001,Surface Outside Face Temperature [C] !TimeStep
16,1,ZN001:WALL001:WIN001,Surface Inside Face Temperature [C] !TimeStep
17,1,ZN001:WALL001:WIN001,Surface Outside Face Temperature [C] !TimeStep
18,1,ZONE ONE,Zone Mean Air Temperature [C] !TimeStep
End of Data Dictionary
1,RUN PERIOD 1,  41.98, -87.92,  -6.00, 201.00
2,1, 1, 1, 0, 1, 0.00,15.00,Tuesday
7,-4.324999999999999
8,0.0
9,0.0
10,0.0
11,0.0
12,0.0
13,0.0
14,4.794359649783272
15,-5.9166183586128089
16,2.135109969916698
17,-4.171537085334421
18,5.21828907716716
2,1, 1, 1, 0, 1,15.00,30.00,Tuesday
7,-6.949999999999999
8,0.0
9,0.0
10,0.0
11,0.0
12,0.0
13,0.0
14,4.610682727416475
15,-8.3842820114858
16,1.4216503078731649
17,-6.1781710461205538
18,5.118950521470099
2,1, 1, 1, 0, 1,30.00,45.00,Tuesday
7,-9.575
8,0.0
9,0.0
10,0.0
11,0.0
12,0.0
13,0.0
14,4.406071760734513
15,-10.860028331688455
16,0.7027012819822858
17,-8.191023999392883
18,4.985892214275347
2,1, 1, 1, 0, 1,45.00,60.00,Tuesday
7,-12.2
8,0.0
9,0.0
10,0.0
11,0.0
12,0.0
13,0.0
14,4.184800775718165
15,-13.342389933802416
16,-0.030703081875913086
17,-10.21191560608878
18,4.8293638685729489
2,1, 1, 1, 0, 2, 0.00,15.00,Tuesday
7,-12.075
8,0.0
9,0.0
10,0.0
11,0.0
12,0.0
13,0.0
14,4.115771936533222
15,-13.14362441420968
16,-0.08203418334392154
17,-10.06501992215135
18,4.688801627542203
2,1, 1, 1, 0, 2,15.00,30.00,Tuesday
7,-11.95
8,0.0
9,0.0
10,0.0
11,0.0
12,0.0
13,0.0
14,4.03311018491997
15,-12.966552670413713
16,-0.10531803221635983
17,-9.93086693008837
18,4.582004938333051
2,1, 1, 1, 0, 2,30.00,45.00,Tuesday
7,-11.825
8,0.0
9,0.0
10,0.0
11,0.0
12,0.0
13,0.0
14,3.9685675697261866
15,-12.788276016089018
16,-0.11805157799409472
17,-9.80594106150761
18,4.503334658873613
2,1, 1, 1, 0, 2,45.00,60.00,Tuesday
7,-11.7
8,0.0
9,0.0
10,0.0
11,0.0
12,0.0
13,0.0
14,3.9157110185248036
15,-12.610073024137709
16,-0.12619690483427349
17,-9.657742305794728
18,4.4410618580558449
2,1, 1, 1, 0, 3, 0.00,15.00,Tuesday
7,-11.549999999999999
8,0.0
9,0.0
10,0.0
11,0.0
12,0.0
13,0.0
14,3.8648912071307004
15,-12.484332245730876
16,-0.11741677319986366
17,-9.52298967165791
18,4.385901410730982
2,1, 1, 1, 0, 3,15.00,30.00,Tuesday
7,-11.399999999999999
8,0.0
9,0.0
10,0.0
11,0.0
12,0.0
13,0.0
14,3.8173402140417425
15,-12.359973474206122
16,-0.11437548183994295
17,-9.36909745237324
18,4.33316672447878
2,1, 1, 1, 0, 3,30.00,45.00,Tuesday
7,-11.25
8,0.0
9,0.0
10,0.0
11,0.0
12,0.0
13,0.0
14,3.7708578003411996
15,-12.23716023407874
16,-0.10183642435072216
17,-9.233376220025378
18,4.281574956445318
2,1, 1, 1, 0, 3,45.00,60.00,Tuesday
7,-11.1
8,0.0
9,0.0
10,0.0
11,0.0
12,0.0
13,0.0
14,3.7249097292306345
15,-12.115942725334503
16,-0.09183273819178339
17,-9.089393621708382
18,4.230931270467677
2,1, 1, 1, 0, 4, 0.00,15.00,Tuesday
7,-11.1
8,0.0
9,0.0
10,0.0
11,0.0
12,0.0
13,0.0
14,3.6750755265522216
15,-12.087119936483415
16,-0.1499039379405076
17,-9.123518084438559
18,4.180048430030416
2,1, 1, 1, 0, 4,15.00,30.00,Tuesday
7,-11.1
8,0.0
9,0.0
10,0.0
11,0.0
12,0.0
13,0.0
14,3.6256230444132817
15,-12.059417598969308
16,-0.2005188127988049
17,-9.164674205711436
18,4.128511338173007
2,1, 1, 1, 0, 4,30.00,45.00,Tuesday
7,-11.1
8,0.0
9,0.0
10,0.0
11,0.0
12,0.0
13,0.0
14,3.5758939774448046
15,-12.033269277492705
16,-0.2501088737825512
17,-9.205687145573222
18,4.076515409035853
2,1, 1, 1, 0, 4,45.00,60.00,Tuesday
7,-11.1
8,0.0
9,0.0
10,0.0
11,0.0
12,0.0
13,0.0
14,3.5260307722257435
15,-12.008540860099379
16,-0.2994094754540697
17,-9.245730949889776
18,4.024360727650723
2,1, 1, 1, 0, 5, 0.00,15.00,Tuesday
7,-10.975
8,0.0
9,0.0
10,0.0
11,0.0
12,0.0
13,0.0
14,3.481942166727414
15,-11.886551481582288
16,-0.30247377791801
17,-9.165344809838928
18,3.9734268860365975
2,1, 1, 1, 0, 5,15.00,30.00,Tuesday
7,-10.85
8,0.0
9,0.0
10,0.0
11,0.0
12,0.0
13,0.0
14,3.4381065799673968
15,-11.764635234296435
16,-0.3083812538352504
17,-9.07702094562677
18,3.9242490364342674
2,1, 1, 1, 0, 5,30.00,45.00,Tuesday
7,-10.725
8,0.0
9,0.0
10,0.0
11,0.0
12,0.0
13,0.0
14,3.395368077603899
15,-11.642694737539156
16,-0.31411921571924497
17,-8.98769274691415
18,3.876565304207367
2,1, 1, 1, 0, 5,45.00,60.00,Tuesday
7,-10.6
8,0.0
9,0.0
10,0.0
11,0.0
12,0.0
13,0.0
14,3.3535401137220957
15,-11.520763307257069
16,-0.3190601599096681
17,-8.898048169911022
18,3.8299506761273616
2,1, 1, 1, 0, 6, 0.00,15.00,Tuesday
7,-10.6
8,0.0
9,0.0
10,0.0
11,0.0
12,0.0
13,0.0
14,3.304576489764775
15,-11.521731026575273
16,-0.3590509342812993
17,-8.901020702599056
18,3.7826936669825077
2,1, 1, 1, 0, 6,15.00,30.00,Tuesday
7,-10.6
8,0.0
9,0.0
10,0.0
11,0.0
12,0.0
13,0.0
14,3.25624841256985
15,-11.522636443717453
16,-0.3975155099466292
17,-8.910347411328076
18,3.7340450446461608
2,1, 1, 1, 0, 6,30.00,45.00,Tuesday
7,-10.6
8,0.0
9,0.0
10,0.0
11,0.0
12,0.0
13,0.0
14,3.207361825546356
15,-11.523584949691369
16,-0.43572484142868009
17,-8.920327705181194
18,3.6842994890784928
2,1, 1, 1, 0, 6,45.00,60.00,Tuesday
7,-10.6
8,0.0
9,0.0
10,0.0
11,0.0
12,0.0
13,0.0
14,3.158145588615845
15,-11.524531530532672
16,-0.47428386566338079
17,-8.930497485248225
18,3.6339991535299367
2,1, 1, 1, 0, 7, 0.00,15.00,Tuesday
7,-10.6
8,0.0
9,0.0
10,0.0
11,0.0
12,0.0
13,0.0
14,3.110917165593721
15,-11.500721238484007
16,-0.5223474050716277
17,-8.964765218810158
18,3.5837886904991445
2,1, 1, 1, 0, 7,15.00,30.00,Tuesday
7,-10.6
8,0.0
9,0.0
10,0.0
11,0.0
12,0.0
13,0.0
14,3.0635468034504624
15,-11.478147542850686
16,-0.5682728000609814
17,-8.999305763141195
18,3.5340157957827289
2,1, 1, 1, 0, 7,30.00,45.00,Tuesday
7,-10.6
8,0.0
9,0.0
10,0.0
11,0.0
12,0.0
13,0.0
14,3.0164411059744369
15,-11.456721253363277
16,-0.6136482781091672
17,-9.033035865475199
18,3.4846835448839355
2,1, 1, 1, 0, 7,45.00,60.00,Tuesday
7,-10.6
8,0.0
9,0.0
10,0.0
11,0.0
12,0.0
13,0.0
14,2.9696184866089809
15,-11.436374114366532
16,-0.658468580964211
17,-9.065768039731552
18,3.435697795042026
2,1, 1, 1, 0, 8, 0.00,15.00,Tuesday
7,-10.45
8,0.0
9,0.0
10,0.0
11,0.0
12,0.0
13,0.0
14,2.9222628168780169
15,-11.387612152948769
16,-0.6702286959533694
17,-9.013800159648725
18,3.3868612117921588
2,1, 1, 1, 0, 8,15.00,30.00,Tuesday
7,-10.3
8,148.01653406384325
9,1.0
10,22.819555959623899
11,1.0
12,22.819555959623899
13,148.01653406384325
14,2.994592580652076
15,-9.714112851129645
16,-0.34937404855259049
17,-8.667730421888905
18,3.355969819598048
2,1, 1, 1, 0, 8,30.00,45.00,Tuesday
7,-10.15
8,726.7626658810535
9,1.0
10,109.75755355442667
11,1.0
12,109.75755355442667
13,726.7626658810535
14,3.393918155925923
15,-3.34613103052237
16,0.9855743364196883
17,-7.493388095516025
18,3.392551481724377
2,1, 1, 1, 0, 8,45.00,60.00,Tuesday
7,-10.0
8,1321.5398876203654
9,1.0
10,195.8764694434918
11,1.0
12,195.8764694434918
13,1321.5398876203654
14,3.93832638685535
15,3.1817130509456925
16,2.437144154168834
17,-6.292560251235727
18,3.5026191225264307
2,1, 1, 1, 0, 9, 0.00,15.00,Tuesday
7,-9.725
8,1914.2684677032626
9,1.0
10,278.97248314719988
11,1.0
12,278.97248314719988
13,1914.2684677032626
14,4.303544632150992
15,8.309529697566293
16,3.944914433596864
17,-5.200731540946208
18,3.6657170179702929
2,1, 1, 1, 0, 9,15.00,30.00,Tuesday
7,-9.45
8,2539.072313923231
9,1.0
10,364.91995730569456
11,1.0
12,364.91995730569456
13,2539.072313923231
14,4.7395369939613289
15,13.396443777015675
16,5.434980730432926
17,-4.1244265742144539
18,3.873283301535744
2,1, 1, 1, 0, 9,30.00,45.00,Tuesday
7,-9.175
8,2952.440164549716
9,1.0
10,420.35879993239237
11,1.0
12,420.35879993239237
13,2952.440164549716
14,5.044623559168073
15,16.15344142988042
16,6.414347893817194
17,-3.4432370435714576
18,4.104745639954384
2,1, 1, 1, 0, 9,45.00,60.00,Tuesday
7,-8.9
8,3381.5497710085135
9,1.0
10,478.00138373643099
11,1.0
12,478.00138373643099
13,3381.5497710085135
14,5.402135351996333
15,19.14862680870434
16,7.394748298917989
17,-2.7508486870102049
18,4.349693240034729
2,1, 1, 1, 0,10, 0.00,15.00,Tuesday
7,-8.350000000000002
8,3819.72525310092
9,1.0
10,536.9185644770597
11,1.0
12,536.9185644770597
13,3819.72525310092
14,5.705231673436477
15,20.2662008994992
16,8.393618449264352
17,-2.0536678379816637
18,4.608164728283325
2,1, 1, 1, 0,10,15.00,30.00,Tuesday
7,-7.800000000000001
8,4273.038382064532
9,1.0
10,598.0969199229219
11,1.0
12,598.0969199229219
13,4273.038382064532
14,6.036237469980806
15,21.51916827461113
16,9.407495726882189
17,-1.3577920004527187
18,4.886473246788334
2,1, 1, 1, 0,10,30.00,45.00,Tuesday
7,-7.25
8,4570.41705598247
9,1.0
10,637.6133352894237
11,1.0
12,637.6133352894237
13,4570.41705598247
14,6.291867648842542
15,21.578862380577659
16,10.132322583486939
17,-0.8797524145348916
18,5.177619788167004
2,1, 1, 1, 0,10,45.00,60.00,Tuesday
7,-6.7
8,4863.415499985352
9,1.0
10,676.6412284283772
11,1.0
12,676.6412284283772
13,4863.415499985352
14,6.572331986572486
15,21.739114175951366
16,10.833412788067108
17,-0.40451885691675218
18,5.4700460290806849
2,1, 1, 1, 0,11, 0.00,15.00,Tuesday
7,-6.275
8,5151.083555253686
9,1.0
10,715.0112779846514
11,1.0
12,715.0112779846514
13,5151.083555253686
14,6.930598321539107
15,23.837040365697967
16,11.598828290360757
17,0.31961882675955169
18,5.764741783581024
2,1, 1, 1, 0,11,15.00,30.00,Tuesday
7,-5.85
8,5431.980261502767
9,1.0
10,752.5077794605232
11,1.0
12,752.5077794605232
13,5431.980261502767
14,7.278899684797936
15,25.772404492886197
16,12.355827120261893
17,1.0255980918076376
18,5.885100489697976
2,1, 1, 1, 0,11,30.00,45.00,Tuesday
7,-5.425
8,5348.498206243613
9,1.0
10,742.5988714321785
11,1.0
12,742.5988714321785
13,5348.498206243613
14,7.442469792962125
15,25.62326146270832
16,12.495377236590457
17,1.3039233883850444
18,6.109757784466108
2,1, 1, 1, 0,11,45.00,60.00,Tuesday
7,-5.0
8,5229.212085323862
9,1.0
10,727.8169025450712
11,1.0
12,727.8169025450712
13,5229.212085323862
14,7.574844482446894
15,25.393341061098
16,12.522012431570147
17,1.542590623175954
18,6.405186884566951
2,1, 1, 1, 0,12, 0.00,15.00,Tuesday
7,-4.575
8,5024.076099878796
9,1.0
10,700.3759009170325
11,1.0
12,700.3759009170325
13,5024.076099878796
14,7.747785447652728
15,24.652944172032148
16,12.440575074566539
17,1.7246798883575139
18,6.691308513115625
2,1, 1, 1, 0,12,15.00,30.00,Tuesday
7,-4.15
8,4871.94122931558
9,1.0
10,681.6705029034473
11,1.0
12,681.6705029034473
13,4871.94122931558
14,7.940452012007485
15,24.32287778129787
16,12.471854683539903
17,1.9819715959819178
18,6.938818217190052
2,1, 1, 1, 0,12,30.00,45.00,Tuesday
7,-3.7249999999999998
8,4277.158639322997
9,1.0
10,602.01865277251
11,1.0
12,602.01865277251
13,4277.158639322997
14,7.885067641048826
15,21.294869388737764
16,11.737129621735449
17,1.7263079892481983
18,7.118187862512344
2,1, 1, 1, 0,12,45.00,60.00,Tuesday
7,-3.3
8,3493.2091881935878
9,1.0
10,493.55004396206007
11,1.0
12,493.55004396206007
13,3493.2091881935878
14,7.707000051861483
15,17.116682330170524
16,10.539852270071606
17,1.2022144005862857
18,7.208925653243454
2,1, 1, 1, 0,13, 0.00,15.00,Tuesday
7,-3.0249999999999996
8,2884.3295946875239
9,1.0
10,412.335026418112
11,1.0
12,412.335026418112
13,2884.3295946875239
14,7.581618140511056
15,14.272637910954267
16,9.584741390820796
17,0.839638837588268
18,7.231886867231169
2,1, 1, 1, 0,13,15.00,30.00,Tuesday
7,-2.75
8,2112.505852962877
9,1.0
10,305.94037763660148
11,1.0
12,305.94037763660148
13,2112.505852962877
14,7.286835980919659
15,10.099821054140373
16,8.245353638638904
17,0.2337988027246638
18,7.1993575169944059
2,1, 1, 1, 0,13,30.00,45.00,Tuesday
7,-2.475
8,1928.6430638732532
9,1.0
10,281.0763483922329
11,1.0
12,281.0763483922329
13,1928.6430638732532
14,7.265328171670488
15,9.587639578665668
16,7.94875691365371
17,0.32905371493882287
18,7.150548351385846
2,1, 1, 1, 0,13,45.00,60.00,Tuesday
7,-2.2
8,1748.610390799348
9,1.0
10,256.7721209415886
11,1.0
12,256.7721209415886
13,1748.610390799348
14,7.231015579748636
15,8.980507826971597
16,7.717521695154176
17,0.44886888215012279
18,7.109231861153787
2,1, 1, 1, 0,14, 0.00,15.00,Tuesday
7,-1.9250000000000003
8,1428.4368474723443
9,1.0
10,210.73276284570657
11,1.0
12,210.73276284570657
13,1428.4368474723443
14,7.096824792274628
15,7.433363184798436
16,7.142781388839467
17,0.33763388717989076
18,7.072502602276077
2,1, 1, 1, 0,14,15.00,30.00,Tuesday
7,-1.6500000000000002
8,1268.9130128286689
9,1.0
10,189.38488290342594
11,1.0
12,189.38488290342594
13,1268.9130128286689
14,7.064439381661578
15,7.027540147257797
16,6.886589259575544
17,0.43676834562182878
18,7.04078774795512
2,1, 1, 1, 0,14,30.00,45.00,Tuesday
7,-1.375
8,1210.1839078162066
9,1.0
10,179.3940297802914
11,1.0
12,179.3940297802914
13,1210.1839078162066
14,7.058988458788375
15,7.150446446059017
16,6.852930195450654
17,0.6621526217622886
18,7.015366370673953
2,1, 1, 1, 0,14,45.00,60.00,Tuesday
7,-1.1
8,1150.7838549837705
9,1.0
10,169.43349014176136
11,1.0
12,169.43349014176136
13,1150.7838549837705
14,7.050388616168138
15,7.2493622265269679
16,6.813213138899982
17,0.8848219823778436
18,6.995532432387832
2,1, 1, 1, 0,15, 0.00,15.00,Tuesday
7,-1.1
8,1211.2722036175777
9,1.0
10,178.15692317953907
11,1.0
12,178.15692317953907
13,1211.2722036175777
14,7.10894784404154
15,8.066210764822529
16,6.96733446847162
17,1.0330132250803673
18,6.984113104713353
2,1, 1, 1, 0,15,15.00,30.00,Tuesday
7,-1.1
8,1137.9569692377798
9,1.0
10,166.40516310952945
11,1.0
12,166.40516310952945
13,1137.9569692377798
14,7.0601512745800589
15,7.703833146050678
16,6.815340345476784
17,0.9723031693395683
18,6.975795021648714
2,1, 1, 1, 0,15,30.00,45.00,Tuesday
7,-1.1
8,959.5048700077512
9,1.0
10,140.8967369711617
11,1.0
12,140.8967369711617
13,959.5048700077512
14,6.947627014034673
15,6.497362751053614
16,6.412987691311059
17,0.7349767471425821
18,6.960038382963941
2,1, 1, 1, 0,15,45.00,60.00,Tuesday
7,-1.1
8,789.5943100591383
9,1.0
10,116.57355796743004
11,1.0
12,116.57355796743004
13,789.5943100591383
14,6.828747581719297
15,5.28515174941732
16,6.022419898985277
17,0.49089805365662189
18,6.927405203989417
2,1, 1, 1, 0,16, 0.00,15.00,Tuesday
7,-1.1
8,626.6670946064958
9,1.0
10,93.14939272689483
11,1.0
12,93.14939272689483
13,626.6670946064958
14,6.730043910627323
15,4.237038730848951
16,5.678182956560136
17,0.3269228456364317
18,6.876200471541488
2,1, 1, 1, 0,16,15.00,30.00,Tuesday
7,-1.1
8,389.0360678411529
9,1.0
10,57.94047897402063
11,1.0
12,57.94047897402063
13,389.0360678411529
14,6.539583592477626
15,2.1114581153940175
16,5.146151296419077
17,0.004853043116554545
18,6.799276649335876
2,1, 1, 1, 0,16,30.00,45.00,Tuesday
7,-1.1
8,301.6300334628514
9,1.0
10,45.38251793443488
11,1.0
12,45.38251793443488
13,301.6300334628514
14,6.466568969453897
15,1.500215085538404
16,4.927978879341367
17,-0.05806206638351341
18,6.707290303453887
2,1, 1, 1, 0,16,45.00,60.00,Tuesday
7,-1.1
8,210.55774644166127
9,1.0
10,32.02625108222755
11,1.0
12,32.02625108222755
13,210.55774644166127
14,6.353860194502527
15,0.6355316571107976
16,4.717373077823424
17,-0.12703982822142735
18,6.614717054303635
2,1, 1, 1, 0,17, 0.00,15.00,Tuesday
7,-1.1
8,115.49062901598868
9,1.0
10,17.762198626050539
11,1.0
12,17.762198626050539
13,115.49062901598868
14,6.215596984354321
15,-0.6174134286243245
16,4.44805686758707
17,-0.30532814803609656
18,6.52238927911725
2,1, 1, 1, 0,17,15.00,30.00,Tuesday
7,-1.1
8,0.0
9,0.0
10,0.0
11,0.0
12,0.0
13,0.0
14,6.027568119208698
15,-2.455473287047748
16,4.0953331922652869
17,-0.599340423503179
18,6.41906845439957
2,1, 1, 1, 0,17,30.00,45.00,Tuesday
7,-1.1
8,0.0
9,0.0
10,0.0
11,0.0
12,0.0
13,0.0
14,5.972801713781647
15,-2.5919597235212796
16,4.0200498023700679
17,-0.5929886793436481
18,6.318736536341384
2,1, 1, 1, 0,17,45.00,60.00,Tuesday
7,-1.1
8,0.0
9,0.0
10,0.0
11,0.0
12,0.0
13,0.0
14,5.9026068767943979
15,-2.7842837258412955
16,3.981922229198915
17,-0.5685855854438273
18,6.234502830152075
2,1, 1, 1, 0,18, 0.00,15.00,Tuesday
7,-1.25
8,0.0
9,0.0
10,0.0
11,0.0
12,0.0
13,0.0
14,5.84376743715463
15,-2.9319524470467357
16,3.8891098058412014
17,-0.7027275096163521
18,6.167000133124598
2,1, 1, 1, 0,18,15.00,30.00,Tuesday
7,-1.4
8,0.0
9,0.0
10,0.0
11,0.0
12,0.0
13,0.0
14,5.79007062390659
15,-3.084386271300413
16,3.8106899096032409
17,-0.8293625753256038
18,6.111151422584138
2,1, 1, 1, 0,18,30.00,45.00,Tuesday
7,-1.5499999999999999
8,0.0
9,0.0
10,0.0
11,0.0
12,0.0
13,0.0
14,5.740525576120632
15,-3.2363358531482899
16,3.7383322611346445
17,-0.949604180994811
18,6.061722412936405
2,1, 1, 1, 0,18,45.00,60.00,Tuesday
7,-1.7
8,0.0
9,0.0
10,0.0
11,0.0
12,0.0
13,0.0
14,5.692918253073798
15,-3.3884570491880989
16,3.6663851454663929
17,-1.0744403440427278
18,6.015415121919005
2,1, 1, 1, 0,19, 0.00,15.00,Tuesday
7,-1.825
8,0.0
9,0.0
10,0.0
11,0.0
12,0.0
13,0.0
14,5.6705008888756309
15,-3.239189754637199
16,3.580688313771873
17,-1.2342482871614494
18,5.973988674847138
2,1, 1, 1, 0,19,15.00,30.00,Tuesday
7,-1.9500000000000002
8,0.0
9,0.0
10,0.0
11,0.0
12,0.0
13,0.0
14,5.647034159023263
15,-3.171509878026366
16,3.5109048581412027
17,-1.3808041296655347
18,5.939194399777197
2,1, 1, 1, 0,19,30.00,45.00,Tuesday
7,-2.075
8,0.0
9,0.0
10,0.0
11,0.0
12,0.0
13,0.0
14,5.618930326358562
15,-3.2450859185388998
16,3.4576524623213347
17,-1.4940085019520666
18,5.9097063272711189
2,1, 1, 1, 0,19,45.00,60.00,Tuesday
7,-2.2
8,0.0
9,0.0
10,0.0
11,0.0
12,0.0
13,0.0
14,5.593664908133456
15,-3.222062124143456
16,3.391959035300488
17,-1.635340232914075
18,5.882476026103078
2,1, 1, 1, 0,20, 0.00,15.00,Tuesday
7,-1.9250000000000003
8,0.0
9,0.0
10,0.0
11,0.0
12,0.0
13,0.0
14,5.585608075991183
15,-2.9207076485627847
16,3.4481249318607185
17,-1.4418536448914097
18,5.858319782433207
2,1, 1, 1, 0,20,15.00,30.00,Tuesday
7,-1.6500000000000002
8,0.0
9,0.0
10,0.0
11,0.0
12,0.0
13,0.0
14,5.577187384040829
15,-2.6223909980069357
16,3.50168476919373
17,-1.2355782106466223
18,5.837792647701732
2,1, 1, 1, 0,20,30.00,45.00,Tuesday
7,-1.375
8,0.0
9,0.0
10,0.0
11,0.0
12,0.0
13,0.0
14,5.5706675604608348
15,-2.325322223087086
16,3.556814530969689
17,-1.026613389572674
18,5.8203713898640079
2,1, 1, 1, 0,20,45.00,60.00,Tuesday
7,-1.1
8,0.0
9,0.0
10,0.0
11,0.0
12,0.0
13,0.0
14,5.5658127146721629
15,-2.029527550699071
16,3.6142208982645345
17,-0.8151428921273691
18,5.805243468903751
2,1, 1, 1, 0,21, 0.00,15.00,Tuesday
7,-1.25
8,0.0
9,0.0
10,0.0
11,0.0
12,0.0
13,0.0
14,5.5183565900362299
15,-2.311512568851792
16,3.572432608180634
17,-0.8872733340249397
18,5.785464380060019
2,1, 1, 1, 0,21,15.00,30.00,Tuesday
7,-1.4
8,0.0
9,0.0
10,0.0
11,0.0
12,0.0
13,0.0
14,5.472404876216971
15,-2.5285077165980485
16,3.517145289022551
17,-0.9809718328417603
18,5.756272438298058
2,1, 1, 1, 0,21,30.00,45.00,Tuesday
7,-1.5499999999999999
8,0.0
9,0.0
10,0.0
11,0.0
12,0.0
13,0.0
14,5.412963135900006
15,-2.873974667271856
16,3.4704507019221184
17,-1.0469601320419884
18,5.716881867209367
2,1, 1, 1, 0,21,45.00,60.00,Tuesday
7,-1.7
8,0.0
9,0.0
10,0.0
11,0.0
12,0.0
13,0.0
14,5.348312169627789
15,-3.327191237015097
16,3.426430846884614
17,-1.0863718518735369
18,5.669613346085595
2,1, 1, 1, 0,22, 0.00,15.00,Tuesday
7,-1.5499999999999999
8,0.0
9,0.0
10,0.0
11,0.0
12,0.0
13,0.0
14,5.352883791885102
15,-2.838136217229549
16,3.403256923626202
17,-1.0727992739371076
18,5.627929272531451
2,1, 1, 1, 0,22,15.00,30.00,Tuesday
7,-1.4
8,0.0
9,0.0
10,0.0
11,0.0
12,0.0
13,0.0
14,5.347541070958567
15,-2.5070228743873588
16,3.4077562717413345
17,-1.0071687650246304
18,5.599018937448335
2,1, 1, 1, 0,22,30.00,45.00,Tuesday
7,-1.25
8,0.0
9,0.0
10,0.0
11,0.0
12,0.0
13,0.0
14,5.340905406370607
15,-2.2865008376687308
16,3.4276123318132365
17,-0.9169618486386639
18,5.580772924012485
2,1, 1, 1, 0,22,45.00,60.00,Tuesday
7,-1.1
8,0.0
9,0.0
10,0.0
11,0.0
12,0.0
13,0.0
14,5.338173186680381
15,-2.003176156313764
16,3.445313580865559
17,-0.8349171071702131
18,5.5680247567142209
2,1, 1, 1, 0,23, 0.00,15.00,Tuesday
7,-1.25
8,0.0
9,0.0
10,0.0
11,0.0
12,0.0
13,0.0
14,5.289919740191591
15,-2.306620709526564
16,3.339813350310237
17,-1.0989771094331218
18,5.55009895242353
2,1, 1, 1, 0,23,15.00,30.00,Tuesday
7,-1.4
8,0.0
9,0.0
10,0.0
11,0.0
12,0.0
13,0.0
14,5.244591119634889
15,-2.6112273461642285
16,3.224188333267648
17,-1.3800692371012247
18,5.521745631051196
2,1, 1, 1, 0,23,30.00,45.00,Tuesday
7,-1.5499999999999999
8,0.0
9,0.0
10,0.0
11,0.0
12,0.0
13,0.0
14,5.19455361548792
15,-2.9165054802670449
16,3.106888176905727
17,-1.662912552789976
18,5.484097994635431
2,1, 1, 1, 0,23,45.00,60.00,Tuesday
7,-1.7
8,0.0
9,0.0
10,0.0
11,0.0
12,0.0
13,0.0
14,5.140555900734447
15,-3.2221259121795859
16,2.9854631695104105
17,-1.9482232359451928
18,5.440184574515185
2,1, 1, 1, 0,24, 0.00,15.00,Tuesday
7,-1.7
8,0.0
9,0.0
10,0.0
11,0.0
12,0.0
13,0.0
14,5.103022826048082
15,-3.2761500671785819
16,2.9356635383492177
17,-2.0126527980678476
18,5.395795477618683
2,1, 1, 1, 0,24,15.00,30.00,Tuesday
7,-1.7
8,0.0
9,0.0
10,0.0
11,0.0
12,0.0
13,0.0
14,5.063331767643569
15,-3.3308141101491768
16,2.8894641488344634
17,-2.073519340134453
18,5.354014647149883
2,1, 1, 1, 0,24,30.00,45.00,Tuesday
7,-1.7
8,0.0
9,0.0
10,0.0
11,0.0
12,0.0
13,0.0
14,5.024716345536296
15,-3.385367516809129
16,2.8430749503166909
17,-2.1342273294192184
18,5.314842089270825
2,1, 1, 1, 0,24,45.00,60.00,Tuesday
7,-1.7
8,0.0
9,0.0
10,0.0
11,0.0
12,0.0
13,0.0
14,4.986925510789348
15,-3.4399227813873476
16,2.7975703475730144
17,-2.194558611789489
18,5.2772343565260659
End of Data
 Number of Records Written=        1152
