Program Version,EnergyPlus, Version 9.5.0-de239b2e5f, YMD=2023.02.17 18:13
1,5,Environment Title[],Latitude[deg],Longitude[deg],Time Zone[],Elevation[m]
2,8,Day of Simulation[],Month[],Day of Month[],DST Indicator[1=yes 0=no],Hour[],StartMinute[],EndMinute[],DayType
3,5,Cumulative Day of Simulation[],Month[],Day of Month[],DST Indicator[1=yes 0=no],DayType  ! When Daily Report Variables Requested
4,2,Cumulative Days of Simulation[],Month[]  ! When Monthly Report Variables Requested
5,1,Cumulative Days of Simulation[] ! When Run Period Report Variables Requested
6,1,Calendar Year of Simulation[] ! When Annual Report Variables Requested
7,1,Environment,Site Outdoor Air Drybulb Temperature [C] !TimeStep
8,1,ZONE ONE,Zone Windows Total Transmitted Solar Radiation Rate [W] !TimeStep
9,1,ZN001:WALL001,Surface Outside Face Sunlit Fraction [] !TimeStep
10,1,ZN001:WALL001,Surface Outside Face Incident Solar Radiation Rate per Area [W/m2] !TimeStep
11,1,ZN001:WALL001:WIN001,Surface Outside Face Sunlit Fraction [] !TimeStep
12,1,ZN001:WALL001:WIN001,Surface Outside Face Incident Solar Radiation Rate per Area [W/m2] !TimeStep
13,1,ZN001:WALL001:WIN001,Surface Window Transmitted Solar Radiation Rate [W] !TimeStep
14,1,ZN001:WALL001,Surface Inside Face Temperature [C] !TimeStep
15,1,ZN001:WALL001,Surface Outside Face Temperature [C] !TimeStep
16,1,ZN001:WALL001:WIN001,Surface Inside Face Temperature [C] !TimeStep
17,1,ZN001:WALL001:WIN001,Surface Outside Face Temperature [C] !TimeStep
18,1,ZONE ONE,Zone Mean Air Temperature [C] !TimeStep
End of Data Dictionary
1,RUN PERIOD 1,  41.98, -87.92,  -6.00, 201.00
2,1, 1, 1, 0, 1, 0.00,15.00,Tuesday
7,-4.324999999999999
8,0.0
9,0.0
10,0.0
11,0.0
12,0.0
13,0.0
14,1.7525984412238574
15,-5.97213218916348
16,-0.5853329842292396
17,-4.52890716447348
18,2.095745786627307
2,1, 1, 1, 0, 1,15.00,30.00,Tuesday
7,-6.949999999999999
8,0.0
9,0.0
10,0.0
11,0.0
12,0.0
13,0.0
14,1.5727623954712622
15,-8.44009038937173
16,-1.4078092739484305
17,-6.462014687775081
18,2.0027045783683459
2,1, 1, 1, 0, 1,30.00,45.00,Tuesday
7,-9.575
8,0.0
9,0.0
10,0.0
11,0.0
12,0.0
13,0.0
14,1.3687101286991746
15,-10.916626082998649
16,-2.232492865526524
17,-8.401280110283267
18,1.8733797675872293
2,1, 1, 1, 0, 1,45.00,60.00,Tuesday
7,-12.2
8,0.0
9,0.0
10,0.0
11,0.0
12,0.0
13,0.0
14,1.1485752086897805
15,-13.399632998729166
16,-3.0710629054084395
17,-10.349551933050066
18,1.7182503329719317
2,1, 1, 1, 0, 2, 0.00,15.00,Tuesday
7,-12.075
8,0.0
9,0.0
10,0.0
11,0.0
12,0.0
13,0.0
14,1.0871717194090345
15,-13.20140373867825
16,-3.1018974957211755
17,-10.218041498121693
18,1.5791845450018838
2,1, 1, 1, 0, 2,15.00,30.00,Tuesday
7,-11.95
8,0.0
9,0.0
10,0.0
11,0.0
12,0.0
13,0.0
14,1.0105082868988884
15,-13.024227698398754
16,-3.10373085704839
17,-10.10073377069682
18,1.4754341722860985
2,1, 1, 1, 0, 2,30.00,45.00,Tuesday
7,-11.825
8,0.0
9,0.0
10,0.0
11,0.0
12,0.0
13,0.0
14,0.952670181977351
15,-12.845742455206287
16,-3.103390682990266
17,-9.973813808094292
18,1.4015683650738178
2,1, 1, 1, 0, 2,45.00,60.00,Tuesday
7,-11.7
8,0.0
9,0.0
10,0.0
11,0.0
12,0.0
13,0.0
14,0.9072581268598762
15,-12.667325302772803
16,-3.091045064792752
17,-9.841540689574572
18,1.3456266438600005
2,1, 1, 1, 0, 3, 0.00,15.00,Tuesday
7,-11.549999999999999
8,0.0
9,0.0
10,0.0
11,0.0
12,0.0
13,0.0
14,0.864027110260925
15,-12.542965440002759
16,-3.070252084070205
17,-9.705552154221437
18,1.2977620947535887
2,1, 1, 1, 0, 3,15.00,30.00,Tuesday
7,-11.399999999999999
8,0.0
9,0.0
10,0.0
11,0.0
12,0.0
13,0.0
14,0.824518898102535
15,-12.420049694757969
16,-3.0472693122988518
17,-9.569390461253875
18,1.2529492214636693
2,1, 1, 1, 0, 3,30.00,45.00,Tuesday
7,-11.25
8,0.0
9,0.0
10,0.0
11,0.0
12,0.0
13,0.0
14,0.7861801718644814
15,-12.29874933261969
16,-3.0224698715132378
17,-9.433076899822766
18,1.2095554113637226
2,1, 1, 1, 0, 3,45.00,60.00,Tuesday
7,-11.1
8,0.0
9,0.0
10,0.0
11,0.0
12,0.0
13,0.0
14,0.7485086527276553
15,-12.179123489487174
16,-2.9970019046129439
17,-9.297043385763459
18,1.1672443944201006
2,1, 1, 1, 0, 4, 0.00,15.00,Tuesday
7,-11.1
8,0.0
9,0.0
10,0.0
11,0.0
12,0.0
13,0.0
14,0.706949441274048
15,-12.148338736666329
16,-3.047528870165479
17,-9.327035460429329
18,1.12472784458731
2,1, 1, 1, 0, 4,15.00,30.00,Tuesday
7,-11.1
8,0.0
9,0.0
10,0.0
11,0.0
12,0.0
13,0.0
14,0.6657452624279419
15,-12.118756744742454
16,-3.090554875085445
17,-9.363701963566883
18,1.0815305525388935
2,1, 1, 1, 0, 4,30.00,45.00,Tuesday
7,-11.1
8,0.0
9,0.0
10,0.0
11,0.0
12,0.0
13,0.0
14,0.624244638394137
15,-12.090821743027304
16,-3.132394655505891
17,-9.40047402246313
18,1.037826915599536
2,1, 1, 1, 0, 4,45.00,60.00,Tuesday
7,-11.1
8,0.0
9,0.0
10,0.0
11,0.0
12,0.0
13,0.0
14,0.5825735943873033
15,-12.064395436429152
16,-3.1738934426070957
17,-9.43645283635675
18,0.9939184305086368
2,1, 1, 1, 0, 5, 0.00,15.00,Tuesday
7,-10.975
8,0.0
9,0.0
10,0.0
11,0.0
12,0.0
13,0.0
14,0.5468369327283551
15,-11.942200649557478
16,-3.1627406678844069
17,-9.359091570598594
18,0.9512437349930216
2,1, 1, 1, 0, 5,15.00,30.00,Tuesday
7,-10.85
8,0.0
9,0.0
10,0.0
11,0.0
12,0.0
13,0.0
14,0.511357972817681
15,-11.820097117700613
16,-3.1544471972080716
17,-9.274284104239655
18,0.9103818241728299
2,1, 1, 1, 0, 5,30.00,45.00,Tuesday
7,-10.725
8,0.0
9,0.0
10,0.0
11,0.0
12,0.0
13,0.0
14,0.47697654419205878
15,-11.69796919393692
16,-3.146099405119969
17,-9.188385319753536
18,0.8710791637980984
2,1, 1, 1, 0, 5,45.00,60.00,Tuesday
7,-10.6
8,0.0
9,0.0
10,0.0
11,0.0
12,0.0
13,0.0
14,0.44351839666107109
15,-11.575850091603215
16,-3.137011507322086
17,-9.102105747235897
18,0.8328954959895509
2,1, 1, 1, 0, 6, 0.00,15.00,Tuesday
7,-10.6
8,0.0
9,0.0
10,0.0
11,0.0
12,0.0
13,0.0
14,0.40262936604333829
15,-11.576691960051079
16,-3.1648775123270527
17,-9.107304773655642
18,0.7941517975390514
2,1, 1, 1, 0, 6,15.00,30.00,Tuesday
7,-10.6
8,0.0
9,0.0
10,0.0
11,0.0
12,0.0
13,0.0
14,0.3623503950941654
15,-11.57744299120404
16,-3.1948079783288678
17,-9.11594620918811
18,0.7539822357905448
2,1, 1, 1, 0, 6,30.00,45.00,Tuesday
7,-10.6
8,0.0
9,0.0
10,0.0
11,0.0
12,0.0
13,0.0
14,0.32150812494101407
15,-11.578239681579057
16,-3.224788746723334
17,-9.125344255262064
18,0.7125957523581634
2,1, 1, 1, 0, 6,45.00,60.00,Tuesday
7,-10.6
8,0.0
9,0.0
10,0.0
11,0.0
12,0.0
13,0.0
14,0.2802284634803785
15,-11.579036687915942
16,-3.2589000744070519
17,-9.133706702664029
18,0.6704241120417518
2,1, 1, 1, 0, 7, 0.00,15.00,Tuesday
7,-10.6
8,0.0
9,0.0
10,0.0
11,0.0
12,0.0
13,0.0
14,0.2410473449082803
15,-11.553650500743747
16,-3.2993056633894186
17,-9.16380713983915
18,0.6282093554283526
2,1, 1, 1, 0, 7,15.00,30.00,Tuesday
7,-10.6
8,0.0
9,0.0
10,0.0
11,0.0
12,0.0
13,0.0
14,0.2016448075266364
15,-11.529583041366037
16,-3.337480502128983
17,-9.194356579066835
18,0.5863958788301024
2,1, 1, 1, 0, 7,30.00,45.00,Tuesday
7,-10.6
8,0.0
9,0.0
10,0.0
11,0.0
12,0.0
13,0.0
14,0.16247301653799646
15,-11.506733809226505
16,-3.3750811885789746
17,-9.224266176732158
18,0.5450266490125559
2,1, 1, 1, 0, 7,45.00,60.00,Tuesday
7,-10.6
8,0.0
9,0.0
10,0.0
11,0.0
12,0.0
13,0.0
14,0.12357121066659083
15,-11.485031115324557
16,-3.412125669162947
17,-9.253302630265182
18,0.504009367207416
2,1, 1, 1, 0, 8, 0.00,15.00,Tuesday
7,-10.45
8,0.0
9,0.0
10,0.0
11,0.0
12,0.0
13,0.0
14,0.08402683272334122
15,-11.437353045451811
16,-3.409521765109332
17,-9.216803558050743
18,0.46319591825474257
2,1, 1, 1, 0, 8,15.00,30.00,Tuesday
7,-10.3
8,93.05655358355645
9,1.0
10,22.819555959623899
11,1.0
12,22.819555959623899
13,93.05655358355645
14,0.15496340976504867
15,-9.764373915944703
16,-3.000251147479389
17,-8.792681671675269
18,0.4384845783008038
2,1, 1, 1, 0, 8,30.00,45.00,Tuesday
7,-10.15
8,457.6558068976325
9,1.0
10,109.75755355442667
11,1.0
12,109.75755355442667
13,457.6558068976325
14,0.527656802441528
15,-3.4043782900603078
16,-1.3580955883273874
17,-7.35134739764311
18,0.4735026513548745
2,1, 1, 1, 0, 8,45.00,60.00,Tuesday
7,-10.0
8,834.7083798112577
9,1.0
10,195.8764694434918
11,1.0
12,195.8764694434918
13,834.7083798112577
14,0.9906470700529261
15,3.0849392027509858
16,0.3927880828803154
17,-5.900353305408885
18,0.5738125157163071
2,1, 1, 1, 0, 9, 0.00,15.00,Tuesday
7,-9.725
8,1213.0424691673657
9,1.0
10,278.97248314719988
11,1.0
12,278.97248314719988
13,1213.0424691673657
14,1.3479980281918183
15,8.267978737419487
16,2.0610520311654456
17,-4.628045797035554
18,0.7209448826461702
2,1, 1, 1, 0, 9,15.00,30.00,Tuesday
7,-9.45
8,1614.6596458019777
9,1.0
10,364.91995730569456
11,1.0
12,364.91995730569456
13,1614.6596458019777
14,1.733076987198172
15,13.349152551053498
16,3.658688151950969
17,-3.3875920071376415
18,0.9078817754673778
2,1, 1, 1, 0, 9,30.00,45.00,Tuesday
7,-9.175
8,1884.2599245450097
9,1.0
10,420.35879993239237
11,1.0
12,420.35879993239237
13,1884.2599245450097
14,1.9994963581256647
15,16.10892353793639
16,4.684311486160823
17,-2.6257139518232295
18,1.115533661712326
2,1, 1, 1, 0, 9,45.00,60.00,Tuesday
7,-8.9
8,2165.580052602723
9,1.0
10,478.00138373643099
11,1.0
12,478.00138373643099
13,2165.580052602723
14,2.3123502161293216
15,19.104668061656118
16,5.721434117288311
17,-1.846445097500009
18,1.3348156829785245
2,1, 1, 1, 0,10, 0.00,15.00,Tuesday
7,-8.350000000000002
8,2454.3103898650085
9,1.0
10,536.9185644770597
11,1.0
12,536.9185644770597
13,2454.3103898650085
14,2.5665201779244217
15,20.22538843963563
16,6.757983973694877
17,-1.1063407361900204
18,1.567225765987703
2,1, 1, 1, 0,10,15.00,30.00,Tuesday
7,-7.800000000000001
8,2754.195489731118
9,1.0
10,598.0969199229219
11,1.0
12,598.0969199229219
13,2754.195489731118
14,2.8452620128135286
15,21.480686535439376
16,7.811746226331422
17,-0.36814739145029309
18,1.8190682599643289
2,1, 1, 1, 0,10,30.00,45.00,Tuesday
7,-7.25
8,2954.4957344842507
9,1.0
10,637.6133352894237
11,1.0
12,637.6133352894237
13,2954.4957344842507
14,3.055916841801091
15,21.54257846268078
16,8.53360131788645
17,0.11047402719827915
18,2.0758800642287369
2,1, 1, 1, 0,10,45.00,60.00,Tuesday
7,-6.7
8,3152.384503655079
9,1.0
10,676.6412284283772
11,1.0
12,676.6412284283772
13,3152.384503655079
14,3.285452249829898
15,21.704493770523376
16,9.234412469911206
17,0.5854751473098645
18,2.326825830455236
2,1, 1, 1, 0,11, 0.00,15.00,Tuesday
7,-6.275
8,3346.9823591773949
9,1.0
10,715.0112779846514
11,1.0
12,715.0112779846514
13,3346.9823591773949
14,3.592338769072336
15,23.80192299290607
16,10.025921844855987
17,1.345207484061234
18,2.5755051006150757
2,1, 1, 1, 0,11,15.00,30.00,Tuesday
7,-5.85
8,3537.0739759815935
9,1.0
10,752.5077794605232
11,1.0
12,752.5077794605232
13,3537.0739759815935
14,3.8860899492913525
15,25.736962444360484
16,10.801372444674599
17,2.085559283566454
18,2.826883615447954
2,1, 1, 1, 0,11,30.00,45.00,Tuesday
7,-5.425
8,3486.3549214294764
9,1.0
10,742.5988714321785
11,1.0
12,742.5988714321785
13,3486.3549214294764
14,4.053887067416263
15,25.588890883243907
16,10.919470350365885
17,2.3400462620709279
18,3.064511034852554
2,1, 1, 1, 0,11,45.00,60.00,Tuesday
7,-5.0
8,3410.7994498435948
9,1.0
10,727.8169025450712
11,1.0
12,727.8169025450712
13,3410.7994498435948
14,4.21778606385272
15,25.359514025336883
16,10.951503040621163
17,2.5542194847209886
18,3.2766524994049819
2,1, 1, 1, 0,12, 0.00,15.00,Tuesday
7,-4.575
8,3278.643045900458
9,1.0
10,700.3759009170325
11,1.0
12,700.3759009170325
13,3278.643045900458
14,4.329574335504139
15,24.616780006398437
16,10.81333860648806
17,2.6802349396716069
18,3.4573965125526309
2,1, 1, 1, 0,12,15.00,30.00,Tuesday
7,-4.15
8,3178.532288203043
9,1.0
10,681.6705029034473
11,1.0
12,681.6705029034473
13,3178.532288203043
14,4.461061006799094
15,24.286160652139743
16,10.78827594045606
17,2.89669814177239
18,3.6142673382229137
2,1, 1, 1, 0,12,30.00,45.00,Tuesday
7,-3.7249999999999998
8,2787.510954562938
9,1.0
10,602.01865277251
11,1.0
12,602.01865277251
13,2787.510954562938
14,4.376735346976912
15,21.257826279731654
16,9.905630224362085
17,2.509154948773812
18,3.7277026746132746
2,1, 1, 1, 0,12,45.00,60.00,Tuesday
7,-3.3
8,2274.693096093222
9,1.0
10,493.55004396206007
11,1.0
12,493.55004396206007
13,2274.693096093222
14,4.195076793510052
15,17.07918122787358
16,8.524325748990691
17,1.794729344541338
18,3.776942986805402
2,1, 1, 1, 0,13, 0.00,15.00,Tuesday
7,-3.0249999999999996
8,1872.7821239047929
9,1.0
10,412.335026418112
11,1.0
12,412.335026418112
13,1872.7821239047929
14,4.06753323848222
15,14.234334353912658
16,7.474052741245373
17,1.3139233822707298
18,3.775694195765524
2,1, 1, 1, 0,13,15.00,30.00,Tuesday
7,-2.75
8,1367.06607109172
9,1.0
10,305.94037763660148
11,1.0
12,305.94037763660148
13,1367.06607109172
14,3.7972882780092798
15,10.06092893667656
16,5.985866238322501
17,0.5236938847084502
18,3.7327096533199097
2,1, 1, 1, 0,13,30.00,45.00,Tuesday
7,-2.475
8,1245.7174943252294
9,1.0
10,281.0763483922329
11,1.0
12,281.0763483922329
13,1245.7174943252294
14,3.7821345254291596
15,9.547561330288306
16,5.690557367535462
17,0.5792434148963821
18,3.6793006652380084
2,1, 1, 1, 0,13,45.00,60.00,Tuesday
7,-2.2
8,1126.9065105399337
9,1.0
10,256.7721209415886
11,1.0
12,256.7721209415886
13,1126.9065105399337
14,3.7516119607700144
15,8.940167357429056
16,5.446659927035967
17,0.6534744635420111
18,3.6338060837364067
2,1, 1, 1, 0,14, 0.00,15.00,Tuesday
7,-1.9250000000000003
8,919.070031690966
9,1.0
10,210.73276284570657
11,1.0
12,210.73276284570657
13,919.070031690966
14,3.641415035117061
15,7.391880894278226
16,4.824422232466816
17,0.4518334841745286
18,3.593489476361936
2,1, 1, 1, 0,14,15.00,30.00,Tuesday
7,-1.6500000000000002
8,814.001101350858
9,1.0
10,189.38488290342594
11,1.0
12,189.38488290342594
13,814.001101350858
14,3.6165796585223397
15,6.985091773252489
16,4.581594146374584
17,0.5121243189304323
18,3.558531318267313
2,1, 1, 1, 0,14,30.00,45.00,Tuesday
7,-1.375
8,776.7255076603376
9,1.0
10,179.3940297802914
11,1.0
12,179.3940297802914
13,776.7255076603376
14,3.617634241024053
15,7.105463733975161
16,4.536953491473469
17,0.702464380790957
18,3.5313868166254536
2,1, 1, 1, 0,14,45.00,60.00,Tuesday
7,-1.1
8,738.680308524697
9,1.0
10,169.43349014176136
11,1.0
12,169.43349014176136
13,738.680308524697
14,3.61600770675261
15,7.202842932872976
16,4.489455792173885
17,0.8895509758438038
18,3.5119680512736366
2,1, 1, 1, 0,15, 0.00,15.00,Tuesday
7,-1.1
8,776.6737282144568
9,1.0
10,178.15692317953907
11,1.0
12,178.15692317953907
13,776.6737282144568
14,3.6676645704846257
15,8.017348860140427
16,4.65895997381449
17,1.0547250244042062
18,3.502658485951848
2,1, 1, 1, 0,15,15.00,30.00,Tuesday
7,-1.1
8,729.0813601735297
9,1.0
10,166.40516310952945
11,1.0
12,166.40516310952945
13,729.0813601735297
14,3.6296292158086724
15,7.6543311677140359
16,4.484718812067399
17,0.9635764242633513
18,3.4969910577771667
2,1, 1, 1, 0,15,30.00,45.00,Tuesday
7,-1.1
8,613.5209712923864
9,1.0
10,140.8967369711617
11,1.0
12,140.8967369711617
13,613.5209712923864
14,3.53269761657198
15,6.446827899106356
16,4.039214271874869
17,0.6628645241318054
18,3.4848308787038797
2,1, 1, 1, 0,15,45.00,60.00,Tuesday
7,-1.1
8,503.86638433571127
9,1.0
10,116.57355796743004
11,1.0
12,116.57355796743004
13,503.86638433571127
14,3.4358388253789764
15,5.235008596909357
16,3.578359326589009
17,0.3514913421724941
18,3.4582354489564035
2,1, 1, 1, 0,16, 0.00,15.00,Tuesday
7,-1.1
8,399.1286926810121
9,1.0
10,93.14939272689483
11,1.0
12,93.14939272689483
13,399.1286926810121
14,3.3367370926412596
15,4.176353680604138
16,3.148434786765165
17,0.10981577247628138
18,3.4175473779830907
2,1, 1, 1, 0,16,15.00,30.00,Tuesday
7,-1.1
8,247.25039705212277
9,1.0
10,57.94047897402063
11,1.0
12,57.94047897402063
13,247.25039705212277
14,3.169257055834004
15,2.048249133609996
16,2.4939433703584656
17,-0.33539576869952728
18,3.3572676385029558
2,1, 1, 1, 0,16,30.00,45.00,Tuesday
7,-1.1
8,191.3538480402952
9,1.0
10,45.38251793443488
11,1.0
12,45.38251793443488
13,191.3538480402952
14,3.109340002250633
15,1.4317742743733156
16,2.253118444060135
17,-0.4574464434950869
18,3.285470250169374
2,1, 1, 1, 0,16,45.00,60.00,Tuesday
7,-1.1
8,133.3835988771441
9,1.0
10,32.02625108222755
11,1.0
12,32.02625108222755
13,133.3835988771441
14,3.014533121449191
15,0.560388395967987
16,2.005857611774104
17,-0.5968118867898511
18,3.2093976365831016
2,1, 1, 1, 0,17, 0.00,15.00,Tuesday
7,-1.1
8,73.10087592385708
9,1.0
10,17.762198626050539
11,1.0
12,17.762198626050539
13,73.10087592385708
14,2.890224546329078
15,-0.7018414962875301
16,1.684046286748412
17,-0.8562895564640485
18,3.12628539515876
2,1, 1, 1, 0,17,15.00,30.00,Tuesday
7,-1.1
8,0.0
9,0.0
10,0.0
11,0.0
12,0.0
13,0.0
14,2.716004405671155
15,-2.5439782494809748
16,1.270469640301826
17,-1.2276226916197857
18,3.028784530699727
2,1, 1, 1, 0,17,30.00,45.00,Tuesday
7,-1.1
8,0.0
9,0.0
10,0.0
11,0.0
12,0.0
13,0.0
14,2.6679105377987155
15,-2.6843718979309476
16,1.1905158257251288
17,-1.2733634702730115
18,2.93285330692683
2,1, 1, 1, 0,17,45.00,60.00,Tuesday
7,-1.1
8,0.0
9,0.0
10,0.0
11,0.0
12,0.0
13,0.0
14,2.605071468505364
15,-2.8840608540172334
16,1.141450760829116
17,-1.3067644150070237
18,2.8522869876338925
2,1, 1, 1, 0,18, 0.00,15.00,Tuesday
7,-1.25
8,0.0
9,0.0
10,0.0
11,0.0
12,0.0
13,0.0
14,2.5537754660683409
15,-3.030780722459292
16,1.047972456096545
17,-1.4395935121192452
18,2.7887748706126866
2,1, 1, 1, 0,18,15.00,30.00,Tuesday
7,-1.4
8,0.0
9,0.0
10,0.0
11,0.0
12,0.0
13,0.0
14,2.507526174947805
15,-3.1831706933588337
16,0.9717069738816804
17,-1.558574877730507
18,2.7379178147662914
2,1, 1, 1, 0,18,30.00,45.00,Tuesday
7,-1.5499999999999999
8,0.0
9,0.0
10,0.0
11,0.0
12,0.0
13,0.0
14,2.4655806118337479
15,-3.334946278276637
16,0.897673939557933
17,-1.6789800789078982
18,2.6946316747600789
2,1, 1, 1, 0,18,45.00,60.00,Tuesday
7,-1.7
8,0.0
9,0.0
10,0.0
11,0.0
12,0.0
13,0.0
14,2.4259866190005274
15,-3.48689765642362
16,0.8311959558228637
17,-1.7895551337120424
18,2.655449603305429
2,1, 1, 1, 0,19, 0.00,15.00,Tuesday
7,-1.825
8,0.0
9,0.0
10,0.0
11,0.0
12,0.0
13,0.0
14,2.414877189877135
15,-3.326315245888037
16,0.7797558844741843
17,-1.8659186655806935
18,2.6221872715477598
2,1, 1, 1, 0,19,15.00,30.00,Tuesday
7,-1.9500000000000002
8,0.0
9,0.0
10,0.0
11,0.0
12,0.0
13,0.0
14,2.402059963726482
15,-3.248719446456351
16,0.7293361264306668
17,-1.9549598684377543
18,2.5963403208923627
2,1, 1, 1, 0,19,30.00,45.00,Tuesday
7,-2.075
8,0.0
9,0.0
10,0.0
11,0.0
12,0.0
13,0.0
14,2.3841925505622827
15,-3.319572566996556
16,0.6815546054449442
17,-2.0480345107532686
18,2.576236151735061
2,1, 1, 1, 0,19,45.00,60.00,Tuesday
7,-2.2
8,0.0
9,0.0
10,0.0
11,0.0
12,0.0
13,0.0
14,2.3683556660403499
15,-3.2877236956617126
16,0.6324549471007686
17,-2.144854077170237
18,2.558704933167241
2,1, 1, 1, 0,20, 0.00,15.00,Tuesday
7,-1.9250000000000003
8,0.0
9,0.0
10,0.0
11,0.0
12,0.0
13,0.0
14,2.3713963063501377
15,-2.984095144248805
16,0.7162788615023601
17,-1.9598296344539677
18,2.5444865463109109
2,1, 1, 1, 0,20,15.00,30.00,Tuesday
7,-1.6500000000000002
8,0.0
9,0.0
10,0.0
11,0.0
12,0.0
13,0.0
14,2.3740742065813689
15,-2.6837871044484018
16,0.7901017205568905
17,-1.7433085541366609
18,2.534027898149987
2,1, 1, 1, 0,20,30.00,45.00,Tuesday
7,-1.375
8,0.0
9,0.0
10,0.0
11,0.0
12,0.0
13,0.0
14,2.3784440055986018
15,-2.3848266626562339
16,0.8703409358041085
17,-1.5312453236921329
18,2.526817755965033
2,1, 1, 1, 0,20,45.00,60.00,Tuesday
7,-1.1
8,0.0
9,0.0
10,0.0
11,0.0
12,0.0
13,0.0
14,2.3845149101893887
15,-2.0872186483829058
16,0.9532709602261775
17,-1.316822492255369
18,2.5220592959106025
2,1, 1, 1, 0,21, 0.00,15.00,Tuesday
7,-1.25
8,0.0
9,0.0
10,0.0
11,0.0
12,0.0
13,0.0
14,2.344663709498338
15,-2.3783431882081325
16,0.8938516426673573
17,-1.4263231603349596
18,2.5128088081649437
2,1, 1, 1, 0,21,15.00,30.00,Tuesday
7,-1.4
8,0.0
9,0.0
10,0.0
11,0.0
12,0.0
13,0.0
14,2.3058709108083956
15,-2.6001303263495467
16,0.8328535837680988
17,-1.5388775675184548
18,2.494088145124132
2,1, 1, 1, 0,21,30.00,45.00,Tuesday
7,-1.5499999999999999
8,0.0
9,0.0
10,0.0
11,0.0
12,0.0
13,0.0
14,2.252964789188625
15,-2.9575269521945297
16,0.7682305386661028
17,-1.6556831728505586
18,2.4646126394521179
2,1, 1, 1, 0,21,45.00,60.00,Tuesday
7,-1.7
8,0.0
9,0.0
10,0.0
11,0.0
12,0.0
13,0.0
14,2.194823118394212
15,-3.4242984450988525
16,0.6959893633552383
17,-1.7782193721050135
18,2.426324152266305
2,1, 1, 1, 0,22, 0.00,15.00,Tuesday
7,-1.5499999999999999
8,0.0
9,0.0
10,0.0
11,0.0
12,0.0
13,0.0
14,2.210531733724677
15,-2.9191330168174618
16,0.7179347311610513
17,-1.6815567721333765
18,2.393078286693489
2,1, 1, 1, 0,22,15.00,30.00,Tuesday
7,-1.4
8,0.0
9,0.0
10,0.0
11,0.0
12,0.0
13,0.0
14,2.2178194760611067
15,-2.5770523827935158
16,0.7610552313524295
17,-1.56658290937537
18,2.372768030657359
2,1, 1, 1, 0,22,30.00,45.00,Tuesday
7,-1.25
8,0.0
9,0.0
10,0.0
11,0.0
12,0.0
13,0.0
14,2.2226968868747627
15,-2.3516324703897126
16,0.8038700179826037
17,-1.4539741470219952
18,2.3636287913138886
2,1, 1, 1, 0,22,45.00,60.00,Tuesday
7,-1.1
8,0.0
9,0.0
10,0.0
11,0.0
12,0.0
13,0.0
14,2.2314138586681357
15,-2.0594656639372959
16,0.8544055738514089
17,-1.3290353339984904
18,2.3606862031824038
2,1, 1, 1, 0,23, 0.00,15.00,Tuesday
7,-1.25
8,0.0
9,0.0
10,0.0
11,0.0
12,0.0
13,0.0
14,2.1912947410108329
15,-2.363225161001425
16,0.73600761294432
17,-1.5798858122222442
18,2.3533072290100618
2,1, 1, 1, 0,23,15.00,30.00,Tuesday
7,-1.4
8,0.0
9,0.0
10,0.0
11,0.0
12,0.0
13,0.0
14,2.153357655961502
15,-2.6677776181299297
16,0.6108709023298502
17,-1.8500907512358254
18,2.335688146034608
2,1, 1, 1, 0,23,30.00,45.00,Tuesday
7,-1.5499999999999999
8,0.0
9,0.0
10,0.0
11,0.0
12,0.0
13,0.0
14,2.1113687628675086
15,-2.9729496440342695
16,0.48492176040372217
17,-2.1209004843318555
18,2.3083678080034835
2,1, 1, 1, 0,23,45.00,60.00,Tuesday
7,-1.7
8,0.0
9,0.0
10,0.0
11,0.0
12,0.0
13,0.0
14,2.065506837909329
15,-3.2784756740625138
16,0.35590420683234927
17,-2.3926266538566098
18,2.2741268729775925
2,1, 1, 1, 0,24, 0.00,15.00,Tuesday
7,-1.7
8,0.0
9,0.0
10,0.0
11,0.0
12,0.0
13,0.0
14,2.0380164127540585
15,-3.332227318888523
16,0.31283833235181648
17,-2.452614847163204
18,2.238895818458521
2,1, 1, 1, 0,24,15.00,30.00,Tuesday
7,-1.7
8,0.0
9,0.0
10,0.0
11,0.0
12,0.0
13,0.0
14,2.0073829349685696
15,-3.3867769896329436
16,0.27240656813694388
17,-2.5098369822046608
18,2.2059734043101368
2,1, 1, 1, 0,24,30.00,45.00,Tuesday
7,-1.7
8,0.0
9,0.0
10,0.0
11,0.0
12,0.0
13,0.0
14,1.977603821706066
15,-3.4411774892862287
16,0.23145109502252127
17,-2.5671033567231236
18,2.1755460060330988
2,1, 1, 1, 0,24,45.00,60.00,Tuesday
7,-1.7
8,0.0
9,0.0
10,0.0
11,0.0
12,0.0
13,0.0
14,1.9485420350371834
15,-3.4955775395803037
16,0.19120415111501644
17,-2.624024112039706
18,2.1466831687285126
End of Data
 Number of Records Written=        1152
