Program Version,EnergyPlus, Version 9.5.0-de239b2e5f, YMD=2023.02.16 21:09
1,5,Environment Title[],Latitude[deg],Longitude[deg],Time Zone[],Elevation[m]
2,8,Day of Simulation[],Month[],Day of Month[],DST Indicator[1=yes 0=no],Hour[],StartMinute[],EndMinute[],DayType
3,5,Cumulative Day of Simulation[],Month[],Day of Month[],DST Indicator[1=yes 0=no],DayType  ! When Daily Report Variables Requested
4,2,Cumulative Days of Simulation[],Month[]  ! When Monthly Report Variables Requested
5,1,Cumulative Days of Simulation[] ! When Run Period Report Variables Requested
6,1,Calendar Year of Simulation[] ! When Annual Report Variables Requested
7,1,Environment,Site Outdoor Air Drybulb Temperature [C] !TimeStep
8,1,ZONE ONE,Zone Windows Total Transmitted Solar Radiation Rate [W] !TimeStep
9,1,ZN001:WALL001,Surface Outside Face Sunlit Fraction [] !TimeStep
10,1,ZN001:WALL001,Surface Outside Face Incident Solar Radiation Rate per Area [W/m2] !TimeStep
11,1,ZN001:WALL001:WIN001,Surface Outside Face Sunlit Fraction [] !TimeStep
12,1,ZN001:WALL001:WIN001,Surface Outside Face Incident Solar Radiation Rate per Area [W/m2] !TimeStep
13,1,ZN001:WALL001:WIN001,Surface Window Transmitted Solar Radiation Rate [W] !TimeStep
14,1,ZN001:WALL001,Surface Inside Face Temperature [C] !TimeStep
15,1,ZN001:WALL001,Surface Outside Face Temperature [C] !TimeStep
16,1,ZN001:WALL001:WIN001,Surface Inside Face Temperature [C] !TimeStep
17,1,ZN001:WALL001:WIN001,Surface Outside Face Temperature [C] !TimeStep
18,1,ZONE ONE,Zone Mean Air Temperature [C] !TimeStep
End of Data Dictionary
1,RUN PERIOD 1,  41.98, -87.92,  -6.00, 201.00
2,1, 1, 1, 0, 1, 0.00,15.00,Tuesday
7,-4.324999999999999
8,0.0
9,0.0
10,0.0
11,0.0
12,0.0
13,0.0
14,4.10282591715953
15,-5.929232368970169
16,1.8388652373684523
17,-4.496481562029771
18,4.5134489615072159
2,1, 1, 1, 0, 1,15.00,30.00,Tuesday
7,-6.949999999999999
8,0.0
9,0.0
10,0.0
11,0.0
12,0.0
13,0.0
14,3.922140608171609
15,-8.396930874340083
16,1.1748412567665128
17,-6.5427210966375359
18,4.418749280005021
2,1, 1, 1, 0, 1,30.00,45.00,Tuesday
7,-9.575
8,0.0
9,0.0
10,0.0
11,0.0
12,0.0
13,0.0
14,3.7209484622621735
15,-10.872773885960573
16,0.5062136801143424
17,-8.595322226050257
18,4.290894745701786
2,1, 1, 1, 0, 1,45.00,60.00,Tuesday
7,-12.2
8,0.0
9,0.0
10,0.0
11,0.0
12,0.0
13,0.0
14,3.5035103585649325
15,-13.355212243572046
16,-0.17671216216274389
17,-10.65590712222297
18,4.139795378027717
2,1, 1, 1, 0, 2, 0.00,15.00,Tuesday
7,-12.075
8,0.0
9,0.0
10,0.0
11,0.0
12,0.0
13,0.0
14,3.438579296650707
15,-13.15650979755349
16,-0.23446406752640315
17,-10.506041411521096
18,4.00373783059188
2,1, 1, 1, 0, 2,15.00,30.00,Tuesday
7,-11.95
8,0.0
9,0.0
10,0.0
11,0.0
12,0.0
13,0.0
14,3.3597200425132907
15,-12.97936723795928
16,-0.25949454853332556
17,-10.365712821047623
18,3.9004175048871478
2,1, 1, 1, 0, 2,30.00,45.00,Tuesday
7,-11.825
8,0.0
9,0.0
10,0.0
11,0.0
12,0.0
13,0.0
14,3.298422159867262
15,-12.801030662863678
16,-0.27875245546852059
17,-10.224821102237343
18,3.8245942582607879
2,1, 1, 1, 0, 2,45.00,60.00,Tuesday
7,-11.7
8,0.0
9,0.0
10,0.0
11,0.0
12,0.0
13,0.0
14,3.2487345278740307
15,-12.62276593203618
16,-0.2812934605081523
17,-10.090825208675199
18,3.76514077999171
2,1, 1, 1, 0, 3, 0.00,15.00,Tuesday
7,-11.549999999999999
8,0.0
9,0.0
10,0.0
11,0.0
12,0.0
13,0.0
14,3.20076842270278
15,-12.497307628653124
16,-0.28442458475933565
17,-9.938076323823794
18,3.712759942741091
2,1, 1, 1, 0, 3,15.00,30.00,Tuesday
7,-11.399999999999999
8,0.0
9,0.0
10,0.0
11,0.0
12,0.0
13,0.0
14,3.156273436271633
15,-12.373249574988162
16,-0.27821391329757719
17,-9.803957319923768
18,3.662909527848228
2,1, 1, 1, 0, 3,30.00,45.00,Tuesday
7,-11.25
8,0.0
9,0.0
10,0.0
11,0.0
12,0.0
13,0.0
14,3.112704006147723
15,-12.250745706471094
16,-0.2732231508180121
17,-9.661193613225578
18,3.6141909454334288
2,1, 1, 1, 0, 3,45.00,60.00,Tuesday
7,-11.1
8,0.0
9,0.0
10,0.0
11,0.0
12,0.0
13,0.0
14,3.06969397256636
15,-12.129857402675615
16,-0.26806511656172918
17,-9.517817018726192
18,3.5663629029764629
2,1, 1, 1, 0, 4, 0.00,15.00,Tuesday
7,-11.1
8,0.0
9,0.0
10,0.0
11,0.0
12,0.0
13,0.0
14,3.0229116700077456
15,-12.100579122964453
16,-0.3211159392775471
17,-9.54496998611063
18,3.5184017304654748
2,1, 1, 1, 0, 4,15.00,30.00,Tuesday
7,-11.1
8,0.0
9,0.0
10,0.0
11,0.0
12,0.0
13,0.0
14,2.9765210164055295
15,-12.072436201421623
16,-0.367569871277567
17,-9.579240066771263
18,3.4699411480247819
2,1, 1, 1, 0, 4,30.00,45.00,Tuesday
7,-11.1
8,0.0
9,0.0
10,0.0
11,0.0
12,0.0
13,0.0
14,2.929914487828244
15,-12.045867493598954
16,-0.4131389012945874
17,-9.613360258245791
18,3.421130553703282
2,1, 1, 1, 0, 4,45.00,60.00,Tuesday
7,-11.1
8,0.0
9,0.0
10,0.0
11,0.0
12,0.0
13,0.0
14,2.883210084628721
15,-12.02073967677816
16,-0.4584610503055728
17,-9.646589754988839
18,3.3722113529870549
2,1, 1, 1, 0, 5, 0.00,15.00,Tuesday
7,-10.975
8,0.0
9,0.0
10,0.0
11,0.0
12,0.0
13,0.0
14,2.8422283111760477
15,-11.89868028374926
16,-0.4629821654095849
17,-9.56257081092167
18,3.324439179036479
2,1, 1, 1, 0, 5,15.00,30.00,Tuesday
7,-10.85
8,0.0
9,0.0
10,0.0
11,0.0
12,0.0
13,0.0
14,2.801470546116658
15,-11.776700343566028
16,-0.46991482656744668
17,-9.470617180880993
18,3.2783171593954156
2,1, 1, 1, 0, 5,30.00,45.00,Tuesday
7,-10.725
8,0.0
9,0.0
10,0.0
11,0.0
12,0.0
13,0.0
14,2.7617508388140616
15,-11.654697688256564
16,-0.4766317924347163
17,-9.377741858635887
18,3.23361170592461
2,1, 1, 1, 0, 5,45.00,60.00,Tuesday
7,-10.6
8,0.0
9,0.0
10,0.0
11,0.0
12,0.0
13,0.0
14,2.722898410024492
15,-11.532704456970448
16,-0.4825668355354651
17,-9.284594666770829
18,3.1899310754621994
2,1, 1, 1, 0, 6, 0.00,15.00,Tuesday
7,-10.6
8,0.0
9,0.0
10,0.0
11,0.0
12,0.0
13,0.0
14,2.6769271116206565
15,-11.533621337517033
16,-0.5173429612665359
17,-9.288998502836137
18,3.1457352665984517
2,1, 1, 1, 0, 6,15.00,30.00,Tuesday
7,-10.6
8,0.0
9,0.0
10,0.0
11,0.0
12,0.0
13,0.0
14,2.6315335970533519
15,-11.534467638399617
16,-0.5575675521994299
17,-9.294297839366095
18,3.100108870661915
2,1, 1, 1, 0, 6,30.00,45.00,Tuesday
7,-10.6
8,0.0
9,0.0
10,0.0
11,0.0
12,0.0
13,0.0
14,2.585604380435539
15,-11.535361347731766
16,-0.5945672097775514
17,-9.3025140714891
18,3.053334246610019
2,1, 1, 1, 0, 6,45.00,60.00,Tuesday
7,-10.6
8,0.0
9,0.0
10,0.0
11,0.0
12,0.0
13,0.0
14,2.5393136740322634
15,-11.536253127061747
16,-0.6317447490337145
17,-9.311240178753338
18,3.0059828573181126
2,1, 1, 1, 0, 7, 0.00,15.00,Tuesday
7,-10.6
8,0.0
9,0.0
10,0.0
11,0.0
12,0.0
13,0.0
14,2.495062695786002
15,-11.512081087993879
16,-0.6758909643249353
17,-9.339337738908342
18,2.958753829179411
2,1, 1, 1, 0, 7,15.00,30.00,Tuesday
7,-10.6
8,0.0
9,0.0
10,0.0
11,0.0
12,0.0
13,0.0
14,2.4506705525081284
15,-11.48916290255868
16,-0.7181483084437446
17,-9.367591633582549
18,2.9120067106766109
2,1, 1, 1, 0, 7,30.00,45.00,Tuesday
7,-10.6
8,0.0
9,0.0
10,0.0
11,0.0
12,0.0
13,0.0
14,2.4065547749681617
15,-11.467408438392108
16,-0.7599476965848453
17,-9.395123070167756
18,2.86572949958239
2,1, 1, 1, 0, 7,45.00,60.00,Tuesday
7,-10.6
8,0.0
9,0.0
10,0.0
11,0.0
12,0.0
13,0.0
14,2.362727968646036
15,-11.44674887110678
16,-0.8012491219263893
17,-9.421783626625768
18,2.8198103210863278
2,1, 1, 1, 0, 8, 0.00,15.00,Tuesday
7,-10.45
8,0.0
9,0.0
10,0.0
11,0.0
12,0.0
13,0.0
14,2.318243810014697
15,-11.398195833199921
16,-0.8155504570645462
17,-9.372314310851835
18,2.7739489774870158
2,1, 1, 1, 0, 8,15.00,30.00,Tuesday
7,-10.3
8,123.96864907046302
9,1.0
10,22.819555959623899
11,1.0
12,22.819555959623899
13,123.96864907046302
14,2.389055686990174
15,-9.724913195897085
16,-0.4230856312252058
17,-8.972916782937319
18,2.7456384320292694
2,1, 1, 1, 0, 8,30.00,45.00,Tuesday
7,-10.15
8,609.6700723068113
9,1.0
10,109.75755355442667
11,1.0
12,109.75755355442667
13,609.6700723068113
14,2.7744401575692749
15,-3.359099318436273
16,1.1728236657653497
17,-7.589807324061667
18,2.783074070099709
2,1, 1, 1, 0, 8,45.00,60.00,Tuesday
7,-10.0
8,1111.9214582046166
9,1.0
10,195.8764694434918
11,1.0
12,195.8764694434918
13,1111.9214582046166
14,3.2831918189371636
15,3.1451347055188436
16,2.908897806897926
17,-6.225087888057942
18,2.8910433762902025
2,1, 1, 1, 0, 9, 0.00,15.00,Tuesday
7,-9.725
8,1615.8365908167589
9,1.0
10,278.97248314719988
11,1.0
12,278.97248314719988
13,1615.8365908167589
14,3.6521503862710875
15,8.302774916141072
16,4.516353269022147
17,-5.056526138066147
18,3.051044072904967
2,1, 1, 1, 0, 9,15.00,30.00,Tuesday
7,-9.45
8,2150.716382671627
9,1.0
10,364.91995730569456
11,1.0
12,364.91995730569456
13,2150.716382671627
14,4.071039801774842
15,13.385678198858863
16,6.068749157820207
17,-3.9225219831149618
18,3.254620489387736
2,1, 1, 1, 0, 9,30.00,45.00,Tuesday
7,-9.175
8,2509.709685258157
9,1.0
10,420.35879993239237
11,1.0
12,420.35879993239237
13,2509.709685258157
14,4.362651848238879
15,16.14358639367991
16,7.072981586025662
17,-3.225979276123269
18,3.4811686082234218
2,1, 1, 1, 0, 9,45.00,60.00,Tuesday
7,-8.9
8,2884.285163288866
9,1.0
10,478.00138373643099
11,1.0
12,478.00138373643099
13,2884.285163288866
14,4.705640174481921
15,19.138800852321468
16,8.081925195733732
17,-2.5138246868749549
18,3.7204742133927004
2,1, 1, 1, 0,10, 0.00,15.00,Tuesday
7,-8.350000000000002
8,3268.7034786983369
9,1.0
10,536.9185644770597
11,1.0
12,536.9185644770597
13,3268.7034786983369
14,4.99287254242438
15,20.256971797710617
16,9.107616662990836
17,-1.8091171578945478
18,3.9733626738486764
2,1, 1, 1, 0,10,15.00,30.00,Tuesday
7,-7.800000000000001
8,3667.9543036962329
9,1.0
10,598.0969199229219
11,1.0
12,598.0969199229219
13,3667.9543036962329
14,5.307277343164009
15,21.510430995156005
16,10.152385953567319
17,-1.1047284235383473
18,4.249073523412021
2,1, 1, 1, 0,10,30.00,45.00,Tuesday
7,-7.25
8,3934.5657970704689
9,1.0
10,637.6133352894237
11,1.0
12,637.6133352894237
13,3934.5657970704689
14,5.550377039746782
15,21.570623617204036
16,10.88280082940264
17,-0.6363536849081015
18,4.5332890251787669
2,1, 1, 1, 0,10,45.00,60.00,Tuesday
7,-6.7
8,4197.958964396593
9,1.0
10,676.6412284283772
11,1.0
12,676.6412284283772
13,4197.958964396593
14,5.815670776980056
15,21.731190696965116
16,11.588852838102753
17,-0.1698146604099975
18,4.814190793238233
2,1, 1, 1, 0,11, 0.00,15.00,Tuesday
7,-6.275
8,4456.967002901136
9,1.0
10,715.0112779846514
11,1.0
12,715.0112779846514
13,4456.967002901136
14,6.157691544799156
15,23.82898325597319
16,12.350662255113435
17,0.5604618407637645
18,5.0942080653627859
2,1, 1, 1, 0,11,15.00,30.00,Tuesday
7,-5.85
8,4709.976108103051
9,1.0
10,752.5077794605232
11,1.0
12,752.5077794605232
13,4709.976108103051
14,6.488091503337551
15,25.76418913205866
16,13.10112277533608
17,1.2702953393124972
18,5.377851318902785
2,1, 1, 1, 0,11,30.00,45.00,Tuesday
7,-5.425
8,4642.379021367125
9,1.0
10,742.5988714321785
11,1.0
12,742.5988714321785
13,4642.379021367125
14,6.683280060039703
15,25.61614283785622
16,13.236863544190499
17,1.5467819736491038
18,5.647531796172812
2,1, 1, 1, 0,11,45.00,60.00,Tuesday
7,-5.0
8,4541.734569695931
9,1.0
10,727.8169025450712
11,1.0
12,727.8169025450712
13,4541.734569695931
14,6.8737329277301859
15,25.387108822275417
16,13.28493028815626
17,1.7889436630967453
18,5.890335183862442
2,1, 1, 1, 0,12, 0.00,15.00,Tuesday
7,-4.575
8,4365.731602665968
9,1.0
10,700.3759009170325
11,1.0
12,700.3759009170325
13,4365.731602665968
14,7.006570928566511
15,24.644631242542358
16,13.163176168296616
17,1.9560320537253802
18,6.099097600717584
2,1, 1, 1, 0,12,15.00,30.00,Tuesday
7,-4.15
8,4232.44098266421
9,1.0
10,681.6705029034473
11,1.0
12,681.6705029034473
13,4232.44098266421
14,7.160964986318749
15,24.314307589680945
16,13.152155145765733
17,2.2105195811036539
18,6.2818195154546949
2,1, 1, 1, 0,12,30.00,45.00,Tuesday
7,-3.7249999999999998
8,3711.8168809762726
9,1.0
10,602.01865277251
11,1.0
12,602.01865277251
13,3711.8168809762726
14,7.079749363792048
15,21.286006489456534
16,12.324236871964559
17,1.9233054605239204
18,6.4168103899202
2,1, 1, 1, 0,12,45.00,60.00,Tuesday
7,-3.3
8,3028.985681334307
9,1.0
10,493.55004396206007
11,1.0
12,493.55004396206007
13,3028.985681334307
14,6.890587103567281
15,17.107621663044893
16,10.988968843330213
17,1.3381497451018732
18,6.480036184103541
2,1, 1, 1, 0,13, 0.00,15.00,Tuesday
7,-3.0249999999999996
8,2493.888847942334
9,1.0
10,412.335026418112
11,1.0
12,412.335026418112
13,2493.888847942334
14,6.756361178405951
15,14.263282685620167
16,9.968217812092235
17,0.9549271005109858
18,6.486251738606039
2,1, 1, 1, 0,13,15.00,30.00,Tuesday
7,-2.75
8,1820.527398386307
9,1.0
10,305.94037763660148
11,1.0
12,305.94037763660148
13,1820.527398386307
14,6.460832274325589
15,10.08998367663609
16,8.515783908773301
17,0.2969825356990441
18,6.444713039075155
2,1, 1, 1, 0,13,30.00,45.00,Tuesday
7,-2.475
8,1658.9658887544297
9,1.0
10,281.0763483922329
11,1.0
12,281.0763483922329
13,1658.9658887544297
14,6.437238580753736
15,9.576334891735256
16,8.19037466736387
17,0.388054715479484
18,6.390454137650971
2,1, 1, 1, 0,13,45.00,60.00,Tuesday
7,-2.2
8,1500.7827320183477
9,1.0
10,256.7721209415886
11,1.0
12,256.7721209415886
13,1500.7827320183477
14,6.404129188321123
15,8.970394100502285
16,7.932236791904188
17,0.5042753201151982
18,6.343943009082491
2,1, 1, 1, 0,14, 0.00,15.00,Tuesday
7,-1.9250000000000003
8,1224.0166164252426
9,1.0
10,210.73276284570657
11,1.0
12,210.73276284570657
13,1224.0166164252426
14,6.275072393377757
15,7.4224069385313629
16,7.295050877192466
17,0.3612471366937484
18,6.301712164784313
2,1, 1, 1, 0,14,15.00,30.00,Tuesday
7,-1.6500000000000002
8,1084.126079802553
9,1.0
10,189.38488290342594
11,1.0
12,189.38488290342594
13,1084.126079802553
14,6.244241648418724
15,7.0173506142941879
16,7.026984967367639
17,0.460128687225108
18,6.264704171477293
2,1, 1, 1, 0,14,30.00,45.00,Tuesday
7,-1.375
8,1034.4740264979428
9,1.0
10,179.3940297802914
11,1.0
12,179.3940297802914
13,1034.4740264979428
14,6.24045599039056
15,7.139736997140184
16,6.948442635371293
17,0.6696365957939179
18,6.23426970369128
2,1, 1, 1, 0,14,45.00,60.00,Tuesday
7,-1.1
8,983.8025995368014
9,1.0
10,169.43349014176136
11,1.0
12,169.43349014176136
13,983.8025995368014
14,6.23458067550319
15,7.238274556555584
16,6.866208095193315
17,0.8772187447201532
18,6.2101859644386
2,1, 1, 1, 0,15, 0.00,15.00,Tuesday
7,-1.1
8,1034.4174983225249
9,1.0
10,178.15692317953907
11,1.0
12,178.15692317953907
13,1034.4174983225249
14,6.292160676489379
15,8.05546074435594
16,7.028089150752976
17,1.0346262822236554
18,6.195676061893455
2,1, 1, 1, 0,15,15.00,30.00,Tuesday
7,-1.1
8,971.0409804600965
9,1.0
10,166.40516310952945
11,1.0
12,166.40516310952945
13,971.0409804600965
14,6.246318583420682
15,7.691871493685495
16,6.849195455019981
17,0.9564134015643049
18,6.185143811730498
2,1, 1, 1, 0,15,30.00,45.00,Tuesday
7,-1.1
8,817.1500377179115
9,1.0
10,140.8967369711617
11,1.0
12,140.8967369711617
13,817.1500377179115
14,6.137614118129412
15,6.4846949616840618
16,6.398332378223756
17,0.6905367233544553
18,6.16716512624804
2,1, 1, 1, 0,15,45.00,60.00,Tuesday
7,-1.1
8,671.1176570684878
9,1.0
10,116.57355796743004
11,1.0
12,116.57355796743004
13,671.1176570684878
14,6.026355294651975
15,5.27456099932003
16,5.9238356210918259
17,0.40863987347950117
18,6.1334508834219438
2,1, 1, 1, 0,16, 0.00,15.00,Tuesday
7,-1.1
8,531.6265879189662
9,1.0
10,93.14939272689483
11,1.0
12,93.14939272689483
13,531.6265879189662
14,5.93101550580088
15,4.223448799085585
16,5.510186384561109
17,0.20943704783798013
18,6.082912229627274
2,1, 1, 1, 0,16,15.00,30.00,Tuesday
7,-1.1
8,329.33842196398919
9,1.0
10,57.94047897402063
11,1.0
12,57.94047897402063
13,329.33842196398919
14,5.749175997517972
15,2.0970953445936946
16,4.875052065091495
17,-0.18134272062832225
18,6.008830863031362
2,1, 1, 1, 0,16,30.00,45.00,Tuesday
7,-1.1
8,254.889807018965
9,1.0
10,45.38251793443488
11,1.0
12,45.38251793443488
13,254.889807018965
14,5.679161167024407
15,1.4841852751400125
16,4.624724456359502
17,-0.272969317510217
18,5.921105105678923
2,1, 1, 1, 0,16,45.00,60.00,Tuesday
7,-1.1
8,177.67472532894315
9,1.0
10,32.02625108222755
11,1.0
12,32.02625108222755
13,177.67472532894315
14,5.572884395187721
15,0.6180696941552355
16,4.37455602374439
17,-0.37809001375916298
18,5.829763953878895
2,1, 1, 1, 0,17, 0.00,15.00,Tuesday
7,-1.1
8,97.3756307421298
9,1.0
10,17.762198626050539
11,1.0
12,17.762198626050539
13,97.3756307421298
14,5.437608907228046
15,-0.6371225096943235
16,4.057966258458123
17,-0.6061928143087698
18,5.736811404970769
2,1, 1, 1, 0,17,15.00,30.00,Tuesday
7,-1.1
8,0.0
9,0.0
10,0.0
11,0.0
12,0.0
13,0.0
14,5.253956754668416
15,-2.4760836127253964
16,3.651107800358261
17,-0.9550904591786207
18,5.63288995028709
2,1, 1, 1, 0,17,30.00,45.00,Tuesday
7,-1.1
8,0.0
9,0.0
10,0.0
11,0.0
12,0.0
13,0.0
14,5.19992113268258
15,-2.61366915262447
16,3.5666993069571619
17,-0.971503466405693
18,5.53253073228622
2,1, 1, 1, 0,17,45.00,60.00,Tuesday
7,-1.1
8,0.0
9,0.0
10,0.0
11,0.0
12,0.0
13,0.0
14,5.131330117845953
15,-2.807689369868208
16,3.520337662895372
17,-0.9717151822804908
18,5.448676269461831
2,1, 1, 1, 0,18, 0.00,15.00,Tuesday
7,-1.25
8,0.0
9,0.0
10,0.0
11,0.0
12,0.0
13,0.0
14,5.0744648720153979
15,-2.955129531821799
16,3.4311585526752426
17,-1.106358484661996
18,5.3820707667840959
2,1, 1, 1, 0,18,15.00,30.00,Tuesday
7,-1.4
8,0.0
9,0.0
10,0.0
11,0.0
12,0.0
13,0.0
14,5.022885622570385
15,-3.107531124486368
16,3.3564777749156748
17,-1.2334987723578479
18,5.327673621158195
2,1, 1, 1, 0,18,30.00,45.00,Tuesday
7,-1.5499999999999999
8,0.0
9,0.0
10,0.0
11,0.0
12,0.0
13,0.0
14,4.975614742860478
15,-3.2594186617192695
16,3.286133289502743
17,-1.3595752425796946
18,5.280198573339049
2,1, 1, 1, 0,18,45.00,60.00,Tuesday
7,-1.7
8,0.0
9,0.0
10,0.0
11,0.0
12,0.0
13,0.0
14,4.930489308360471
15,-3.4114776005800619
16,3.2186975489923954
17,-1.4848509338545455
18,5.236208130055499
2,1, 1, 1, 0,19, 0.00,15.00,Tuesday
7,-1.825
8,0.0
9,0.0
10,0.0
11,0.0
12,0.0
13,0.0
14,4.9111831353943249
15,-3.2595380183713478
16,3.151815881519042
17,-1.6073178056082043
18,5.197453649321396
2,1, 1, 1, 0,19,15.00,30.00,Tuesday
7,-1.9500000000000002
8,0.0
9,0.0
10,0.0
11,0.0
12,0.0
13,0.0
14,4.890975708991248
15,-3.1894931214023565
16,3.095420625821987
17,-1.7271117582936313
18,5.165648993082856
2,1, 1, 1, 0,19,30.00,45.00,Tuesday
7,-2.075
8,0.0
9,0.0
10,0.0
11,0.0
12,0.0
13,0.0
14,4.865986946223712
15,-3.262408221981635
16,3.0480410713007588
17,-1.8335829854010513
18,5.139317722549399
2,1, 1, 1, 0,19,45.00,60.00,Tuesday
7,-2.2
8,0.0
9,0.0
10,0.0
11,0.0
12,0.0
13,0.0
14,4.844023702466375
15,-3.237313280696324
16,2.9955466648707445
17,-1.953082624346905
18,5.1154149085186699
2,1, 1, 1, 0,20, 0.00,15.00,Tuesday
7,-1.9250000000000003
8,0.0
9,0.0
10,0.0
11,0.0
12,0.0
13,0.0
14,4.838956985633233
15,-2.935430702520617
16,3.0482480502962518
17,-1.7489344020236786
18,5.094463120382816
2,1, 1, 1, 0,20,15.00,30.00,Tuesday
7,-1.6500000000000002
8,0.0
9,0.0
10,0.0
11,0.0
12,0.0
13,0.0
14,4.83367740449901
15,-2.6366368047422896
16,3.099869781666598
17,-1.5330095729289042
18,5.076923437324244
2,1, 1, 1, 0,20,30.00,45.00,Tuesday
7,-1.375
8,0.0
9,0.0
10,0.0
11,0.0
12,0.0
13,0.0
14,4.8301912454136899
15,-2.3391239569353008
16,3.153235703477094
17,-1.3139538511054525
18,5.062333911755109
2,1, 1, 1, 0,20,45.00,60.00,Tuesday
7,-1.1
8,0.0
9,0.0
10,0.0
11,0.0
12,0.0
13,0.0
14,4.828294990297742
15,-2.0429071549289667
16,3.208801213476363
17,-1.0923404940949695
18,5.049959813595813
2,1, 1, 1, 0,21, 0.00,15.00,Tuesday
7,-1.25
8,0.0
9,0.0
10,0.0
11,0.0
12,0.0
13,0.0
14,4.783338581720902
15,-2.3269757448842669
16,3.1633767515613728
17,-1.1877656589543904
18,5.0329832400421499
2,1, 1, 1, 0,21,15.00,30.00,Tuesday
7,-1.4
8,0.0
9,0.0
10,0.0
11,0.0
12,0.0
13,0.0
14,4.739687031160735
15,-2.545082049489462
16,3.1082056900077079
17,-1.2956845249340177
18,5.006657292190083
2,1, 1, 1, 0,21,30.00,45.00,Tuesday
7,-1.5499999999999999
8,0.0
9,0.0
10,0.0
11,0.0
12,0.0
13,0.0
14,4.682355849191831
15,-2.89329765479752
16,3.054355462370097
17,-1.3930915593666669
18,4.9700118908513259
2,1, 1, 1, 0,21,45.00,60.00,Tuesday
7,-1.7
8,0.0
9,0.0
10,0.0
11,0.0
12,0.0
13,0.0
14,4.6197894914933699
15,-3.3496592766840815
16,3.0015557266762018
17,-1.470561966592527
18,4.925220248109519
2,1, 1, 1, 0,22, 0.00,15.00,Tuesday
7,-1.5499999999999999
8,0.0
9,0.0
10,0.0
11,0.0
12,0.0
13,0.0
14,4.6280072646265959
15,-2.856877411472231
16,2.985895949416772
17,-1.4118827410595714
18,4.885966572025904
2,1, 1, 1, 0,22,15.00,30.00,Tuesday
7,-1.4
8,0.0
9,0.0
10,0.0
11,0.0
12,0.0
13,0.0
14,4.625344041650787
15,-2.523237973206576
16,3.003979079830856
17,-1.3191239226060816
18,4.859630178887814
2,1, 1, 1, 0,22,30.00,45.00,Tuesday
7,-1.25
8,0.0
9,0.0
10,0.0
11,0.0
12,0.0
13,0.0
14,4.621796552171425
15,-2.301532164622724
16,3.02697414722428
17,-1.2135539322517275
18,4.844086607073155
2,1, 1, 1, 0,22,45.00,60.00,Tuesday
7,-1.1
8,0.0
9,0.0
10,0.0
11,0.0
12,0.0
13,0.0
14,4.6221897909235729
15,-2.016160626176053
16,3.0529273172268747
17,-1.104042933496089
18,4.834208177096447
2,1, 1, 1, 0,23, 0.00,15.00,Tuesday
7,-1.25
8,0.0
9,0.0
10,0.0
11,0.0
12,0.0
13,0.0
14,4.576739147880267
15,-2.319636400357833
16,2.9559914018909696
17,-1.371399155870904
18,4.8194512254634
2,1, 1, 1, 0,23,15.00,30.00,Tuesday
7,-1.4
8,0.0
9,0.0
10,0.0
11,0.0
12,0.0
13,0.0
14,4.53400273144941
15,-2.6242173673423849
16,2.847843621650327
17,-1.6596403957670987
18,4.794467983366211
2,1, 1, 1, 0,23,30.00,45.00,Tuesday
7,-1.5499999999999999
8,0.0
9,0.0
10,0.0
11,0.0
12,0.0
13,0.0
14,4.486761066048725
15,-2.9294539345719228
16,2.738845308069699
17,-1.9470922310611059
18,4.760226680301682
2,1, 1, 1, 0,23,45.00,60.00,Tuesday
7,-1.7
8,0.0
9,0.0
10,0.0
11,0.0
12,0.0
13,0.0
14,4.435624551245693
15,-3.235034366138675
16,2.626477615837075
17,-2.234516938622164
18,4.719664731576972
2,1, 1, 1, 0,24, 0.00,15.00,Tuesday
7,-1.7
8,0.0
9,0.0
10,0.0
11,0.0
12,0.0
13,0.0
14,4.401990449698692
15,-3.288984046952762
16,2.5797631827441025
17,-2.296736608526089
18,4.678542278032387
2,1, 1, 1, 0,24,15.00,30.00,Tuesday
7,-1.7
8,0.0
9,0.0
10,0.0
11,0.0
12,0.0
13,0.0
14,4.364236038010303
15,-3.3436356352411469
16,2.5368936379013009
17,-2.356824771365609
18,4.639794832617584
2,1, 1, 1, 0,24,30.00,45.00,Tuesday
7,-1.7
8,0.0
9,0.0
10,0.0
11,0.0
12,0.0
13,0.0
14,4.329518888389585
15,-3.3980988404395289
16,2.4932586129306175
17,-2.4170615611725454
18,4.603571247617404
2,1, 1, 1, 0,24,45.00,60.00,Tuesday
7,-1.7
8,0.0
9,0.0
10,0.0
11,0.0
12,0.0
13,0.0
14,4.294468842635808
15,-3.452649070020679
16,2.451034892505618
17,-2.4768264118345089
18,4.568910402738236
End of Data
 Number of Records Written=        1152
