Program Version,EnergyPlus, Version 9.5.0-de239b2e5f, YMD=2023.02.16 21:08
1,5,Environment Title[],Latitude[deg],Longitude[deg],Time Zone[],Elevation[m]
2,8,Day of Simulation[],Month[],Day of Month[],DST Indicator[1=yes 0=no],Hour[],StartMinute[],EndMinute[],DayType
3,5,Cumulative Day of Simulation[],Month[],Day of Month[],DST Indicator[1=yes 0=no],DayType  ! When Daily Report Variables Requested
4,2,Cumulative Days of Simulation[],Month[]  ! When Monthly Report Variables Requested
5,1,Cumulative Days of Simulation[] ! When Run Period Report Variables Requested
6,1,Calendar Year of Simulation[] ! When Annual Report Variables Requested
7,1,Environment,Site Outdoor Air Drybulb Temperature [C] !TimeStep
8,1,ZONE ONE,Zone Windows Total Transmitted Solar Radiation Rate [W] !TimeStep
9,1,ZN001:WALL001,Surface Outside Face Sunlit Fraction [] !TimeStep
10,1,ZN001:WALL001,Surface Outside Face Incident Solar Radiation Rate per Area [W/m2] !TimeStep
11,1,ZN001:WALL001:WIN001,Surface Outside Face Sunlit Fraction [] !TimeStep
12,1,ZN001:WALL001:WIN001,Surface Outside Face Incident Solar Radiation Rate per Area [W/m2] !TimeStep
13,1,ZN001:WALL001:WIN001,Surface Window Transmitted Solar Radiation Rate [W] !TimeStep
14,1,ZN001:WALL001,Surface Inside Face Temperature [C] !TimeStep
15,1,ZN001:WALL001,Surface Outside Face Temperature [C] !TimeStep
16,1,ZN001:WALL001:WIN001,Surface Inside Face Temperature [C] !TimeStep
17,1,ZN001:WALL001:WIN001,Surface Outside Face Temperature [C] !TimeStep
18,1,ZONE ONE,Zone Mean Air Temperature [C] !TimeStep
End of Data Dictionary
1,RUN PERIOD 1,  41.98, -87.92,  -6.00, 201.00
2,1, 1, 1, 0, 1, 0.00,15.00,Tuesday
7,-4.324999999999999
8,0.0
9,0.0
10,0.0
11,0.0
12,0.0
13,0.0
14,0.8101686388317063
15,-5.989304523997351
16,-0.3131339453379951
17,-5.458666184526919
18,1.1409234320934656
2,1, 1, 1, 0, 1,15.00,30.00,Tuesday
7,-6.949999999999999
8,0.0
9,0.0
10,0.0
11,0.0
12,0.0
13,0.0
14,0.6395075624911697
15,-8.457248453135904
16,-0.8468545468451794
17,-7.61265012885076
18,1.0628887497386368
2,1, 1, 1, 0, 1,30.00,45.00,Tuesday
7,-9.575
8,0.0
9,0.0
10,0.0
11,0.0
12,0.0
13,0.0
14,0.4488935248226902
15,-10.933696263455224
16,-1.38104310626278
17,-9.77348971314916
18,0.9528314089958362
2,1, 1, 1, 0, 1,45.00,60.00,Tuesday
7,-12.2
8,0.0
9,0.0
10,0.0
11,0.0
12,0.0
13,0.0
14,0.24344661049618245
15,-13.416627142570587
16,-1.9287928062209972
17,-11.94268665400557
18,0.8194076995957133
2,1, 1, 1, 0, 2, 0.00,15.00,Tuesday
7,-12.075
8,0.0
9,0.0
10,0.0
11,0.0
12,0.0
13,0.0
14,0.19350529819163723
15,-13.218318348183225
16,-2.0006079506676999
17,-11.795711166501519
18,0.6978957851714359
2,1, 1, 1, 0, 2,15.00,30.00,Tuesday
7,-11.95
8,0.0
9,0.0
10,0.0
11,0.0
12,0.0
13,0.0
14,0.1284128173626259
15,-13.04091464155862
16,-2.025861345786666
17,-11.638289080677737
18,0.6061122780892485
2,1, 1, 1, 0, 2,30.00,45.00,Tuesday
7,-11.825
8,0.0
9,0.0
10,0.0
11,0.0
12,0.0
13,0.0
14,0.07939475271394672
15,-12.862330932725249
16,-2.047055892551384
17,-11.480599306414263
18,0.5405028045136138
2,1, 1, 1, 0, 2,45.00,60.00,Tuesday
7,-11.7
8,0.0
9,0.0
10,0.0
11,0.0
12,0.0
13,0.0
14,0.04136921202068158
15,-12.683800928950964
16,-2.055882306341232
17,-11.320859389856765
18,0.49120880843356
2,1, 1, 1, 0, 3, 0.00,15.00,Tuesday
7,-11.549999999999999
8,0.0
9,0.0
10,0.0
11,0.0
12,0.0
13,0.0
14,0.004822387037807863
15,-12.55976950870521
16,-2.0595589693551235
17,-11.19365761880556
18,0.4495188275287769
2,1, 1, 1, 0, 3,15.00,30.00,Tuesday
7,-11.399999999999999
8,0.0
9,0.0
10,0.0
11,0.0
12,0.0
13,0.0
14,-0.028238702535510315
15,-12.437189058862487
16,-2.06357046093342
17,-11.059186761767706
18,0.4107313751482672
2,1, 1, 1, 0, 3,30.00,45.00,Tuesday
7,-11.25
8,0.0
9,0.0
10,0.0
11,0.0
12,0.0
13,0.0
14,-0.06023944440188983
15,-12.31623903753512
16,-2.0659003617464579
17,-10.924311531674562
18,0.37322575581737879
2,1, 1, 1, 0, 3,45.00,60.00,Tuesday
7,-11.1
8,0.0
9,0.0
10,0.0
11,0.0
12,0.0
13,0.0
14,-0.09169505070999103
15,-12.19698244541231
16,-2.0675707978199968
17,-10.789890210431736
18,0.33663791538283036
2,1, 1, 1, 0, 4, 0.00,15.00,Tuesday
7,-11.1
8,0.0
9,0.0
10,0.0
11,0.0
12,0.0
13,0.0
14,-0.12652632542560364
15,-12.165562162218496
16,-2.1034201624595996
17,-10.793566994425249
18,0.3002872205053943
2,1, 1, 1, 0, 4,15.00,30.00,Tuesday
7,-11.1
8,0.0
9,0.0
10,0.0
11,0.0
12,0.0
13,0.0
14,-0.16093828665669517
15,-12.135355685399512
16,-2.135593825359365
17,-10.80423070064046
18,0.26386540696790919
2,1, 1, 1, 0, 4,30.00,45.00,Tuesday
7,-11.1
8,0.0
9,0.0
10,0.0
11,0.0
12,0.0
13,0.0
14,-0.19540883419747574
15,-12.106821267777912
16,-2.1672645652271287
17,-10.81506407212305
18,0.22737327865968455
2,1, 1, 1, 0, 4,45.00,60.00,Tuesday
7,-11.1
8,0.0
9,0.0
10,0.0
11,0.0
12,0.0
13,0.0
14,-0.22989657771031009
15,-12.079825300932795
16,-2.1988116227522598
17,-10.825539053540865
18,0.1908943318300865
2,1, 1, 1, 0, 5, 0.00,15.00,Tuesday
7,-10.975
8,0.0
9,0.0
10,0.0
11,0.0
12,0.0
13,0.0
14,-0.25778607836112796
15,-11.957482319592505
16,-2.2035183989532358
17,-10.731492868612918
18,0.15547292632731256
2,1, 1, 1, 0, 5,15.00,30.00,Tuesday
7,-10.85
8,0.0
9,0.0
10,0.0
11,0.0
12,0.0
13,0.0
14,-0.2864902855503827
15,-11.835278702517308
16,-2.208813839895015
17,-10.629730941563253
18,0.12149062334675379
2,1, 1, 1, 0, 5,30.00,45.00,Tuesday
7,-10.725
8,0.0
9,0.0
10,0.0
11,0.0
12,0.0
13,0.0
14,-0.314235500314799
15,-11.713018328020257
16,-2.214050967976789
17,-10.52731272742443
18,0.08870752285695015
2,1, 1, 1, 0, 5,45.00,60.00,Tuesday
7,-10.6
8,0.0
9,0.0
10,0.0
11,0.0
12,0.0
13,0.0
14,-0.3412464032366048
15,-11.590772255573978
16,-2.2185549919111056
17,-10.42472170114928
18,0.05679041235320104
2,1, 1, 1, 0, 6, 0.00,15.00,Tuesday
7,-10.6
8,0.0
9,0.0
10,0.0
11,0.0
12,0.0
13,0.0
14,-0.37659298508604335
15,-11.59149717766201
16,-2.2464632465952265
17,-10.424544486264836
18,0.024241228926423096
2,1, 1, 1, 0, 6,15.00,30.00,Tuesday
7,-10.6
8,0.0
9,0.0
10,0.0
11,0.0
12,0.0
13,0.0
14,-0.4103941371849261
15,-11.592092602048903
16,-2.2761435056610255
17,-10.428254047859355
18,-0.009641367639006988
2,1, 1, 1, 0, 6,30.00,45.00,Tuesday
7,-10.6
8,0.0
9,0.0
10,0.0
11,0.0
12,0.0
13,0.0
14,-0.444829659305222
15,-11.59276915911415
16,-2.3054472349193135
17,-10.432801511133392
18,-0.04460563355741965
2,1, 1, 1, 0, 6,45.00,60.00,Tuesday
7,-10.6
8,0.0
9,0.0
10,0.0
11,0.0
12,0.0
13,0.0
14,-0.47960844706079566
15,-11.593441587994706
16,-2.335089846321921
17,-10.437721630782676
18,-0.08016834540748982
2,1, 1, 1, 0, 7, 0.00,15.00,Tuesday
7,-10.6
8,0.0
9,0.0
10,0.0
11,0.0
12,0.0
13,0.0
14,-0.5121284225886404
15,-11.567555094575712
16,-2.3657562417689634
17,-10.44486765557724
18,-0.11559136371126393
2,1, 1, 1, 0, 7,15.00,30.00,Tuesday
7,-10.6
8,0.0
9,0.0
10,0.0
11,0.0
12,0.0
13,0.0
14,-0.5448274139399369
15,-11.543009866320015
16,-2.395162129243772
17,-10.452052617134826
18,-0.1504968234165033
2,1, 1, 1, 0, 7,30.00,45.00,Tuesday
7,-10.6
8,0.0
9,0.0
10,0.0
11,0.0
12,0.0
13,0.0
14,-0.577265875512464
15,-11.519706370698815
16,-2.4243161572224496
17,-10.45915807430589
18,-0.18490520298871475
2,1, 1, 1, 0, 7,45.00,60.00,Tuesday
7,-10.6
8,0.0
9,0.0
10,0.0
11,0.0
12,0.0
13,0.0
14,-0.608414912174571
15,-11.497571591264956
16,-2.453147185920784
17,-10.466029598774242
18,-0.21882889773230283
2,1, 1, 1, 0, 8, 0.00,15.00,Tuesday
7,-10.45
8,0.0
9,0.0
10,0.0
11,0.0
12,0.0
13,0.0
14,-0.6427054663214193
15,-11.450123167026013
16,-2.470747633480755
17,-10.426569362199757
18,-0.2530304359262857
2,1, 1, 1, 0, 8,15.00,30.00,Tuesday
7,-10.3
8,57.69019600974546
9,1.0
10,22.819555959623899
11,1.0
12,22.819555959623899
13,57.69019600974546
14,-0.574180842122545
15,-9.777469463246451
16,-2.0622202480305988
17,-10.04581378598482
18,-0.27363203660838927
2,1, 1, 1, 0, 8,30.00,45.00,Tuesday
7,-10.15
8,285.3800070249231
9,1.0
10,109.75755355442667
11,1.0
12,109.75755355442667
13,285.3800070249231
14,-0.2297411847837959
15,-3.420985199564596
16,-0.3377297695122934
17,-8.661042208033109
18,-0.24361890021183667
2,1, 1, 1, 0, 8,45.00,60.00,Tuesday
7,-10.0
8,524.6055123031704
9,1.0
10,195.8764694434918
11,1.0
12,195.8764694434918
13,524.6055123031704
14,0.21067607854093466
15,3.0832818194643858
16,1.4212813443591586
17,-7.324168617550981
18,-0.15666324024969756
2,1, 1, 1, 0, 9, 0.00,15.00,Tuesday
7,-9.725
8,768.4491717444191
9,1.0
10,278.97248314719988
11,1.0
12,278.97248314719988
13,768.4491717444191
14,0.5242668989105407
15,8.253018829600855
16,2.973658525322776
17,-6.156146450676204
18,-0.022566670663308986
2,1, 1, 1, 0, 9,15.00,30.00,Tuesday
7,-9.45
8,1030.6249243631592
9,1.0
10,364.91995730569456
11,1.0
12,364.91995730569456
13,1030.6249243631592
14,0.8801653376758147
15,13.33642771344866
16,4.517714627991381
17,-5.005032835349198
18,0.15090816790354959
2,1, 1, 1, 0, 9,30.00,45.00,Tuesday
7,-9.175
8,1210.4804273274606
9,1.0
10,420.35879993239237
11,1.0
12,420.35879993239237
13,1210.4804273274606
14,1.1192093242938933
15,16.09605267357798
16,5.53237926714894
17,-4.3072703734428618
18,0.34455323577572397
2,1, 1, 1, 0, 9,45.00,60.00,Tuesday
7,-8.9
8,1398.6777532574607
9,1.0
10,478.00138373643099
11,1.0
12,478.00138373643099
13,1398.6777532574607
14,1.4031465345418222
15,19.09184453596237
16,6.553944513727856
17,-3.5791113701675387
18,0.5503156328791237
2,1, 1, 1, 0,10, 0.00,15.00,Tuesday
7,-8.350000000000002
8,1592.0755180216234
9,1.0
10,536.9185644770597
11,1.0
12,536.9185644770597
13,1592.0755180216234
14,1.6259480820495594
15,20.21316198083551
16,7.607526608273986
17,-2.805747452062974
18,0.7720030261370063
2,1, 1, 1, 0,10,15.00,30.00,Tuesday
7,-7.800000000000001
8,1792.701648704855
9,1.0
10,598.0969199229219
11,1.0
12,598.0969199229219
13,1792.701648704855
14,1.8729190841002015
15,21.46903276926544
16,8.682038913563816
17,-2.024024020351817
18,1.0067349618895463
2,1, 1, 1, 0,10,30.00,45.00,Tuesday
7,-7.25
8,1928.119448426844
9,1.0
10,637.6133352894237
11,1.0
12,637.6133352894237
13,1928.119448426844
14,2.05333809859893
15,21.531309051655858
16,9.437811688993293
17,-1.5084161417474889
18,1.240522378196625
2,1, 1, 1, 0,10,45.00,60.00,Tuesday
7,-6.7
8,2061.422449283195
9,1.0
10,676.6412284283772
11,1.0
12,676.6412284283772
13,2061.422449283195
14,2.2483324882760646
15,21.693539588014965
16,10.16607800067959
17,-0.9851656908568884
18,1.4652436715671642
2,1, 1, 1, 0,11, 0.00,15.00,Tuesday
7,-6.275
8,2192.1032501103888
9,1.0
10,715.0112779846514
11,1.0
12,715.0112779846514
13,2192.1032501103888
14,2.5201564443082038
15,23.7907468986141
16,10.917935946303829
17,-0.228642340457327
18,1.684681691542076
2,1, 1, 1, 0,11,15.00,30.00,Tuesday
7,-5.85
8,2319.457313777197
9,1.0
10,752.5077794605232
11,1.0
12,752.5077794605232
13,2319.457313777197
14,2.7770192226101786
15,25.72544301029218
16,11.656488000614673
17,0.5031975151917436
18,1.9037545794927638
2,1, 1, 1, 0,11,30.00,45.00,Tuesday
7,-5.425
8,2285.6965649767259
9,1.0
10,742.5988714321785
11,1.0
12,742.5988714321785
13,2285.6965649767259
14,2.9156092408137108
15,25.57711654571075
16,11.727086642031395
17,0.7844030645416069
18,2.107857288797018
2,1, 1, 1, 0,11,45.00,60.00,Tuesday
7,-5.0
8,2235.2264038775226
9,1.0
10,727.8169025450712
11,1.0
12,727.8169025450712
13,2235.2264038775226
14,3.050405126067587
15,25.347392294918845
16,11.703411461312385
17,1.0292629028811576
18,2.2870551932469738
2,1, 1, 1, 0,12, 0.00,15.00,Tuesday
7,-4.575
8,2148.0872974320998
9,1.0
10,700.3759009170325
11,1.0
12,700.3759009170325
13,2148.0872974320998
14,3.1384253991624027
15,24.604359373167357
16,11.49912828838626
17,1.2008691908750394
18,2.4369703755418428
2,1, 1, 1, 0,12,15.00,30.00,Tuesday
7,-4.15
8,2080.433669087304
9,1.0
10,681.6705029034473
11,1.0
12,681.6705029034473
13,2080.433669087304
14,3.244141789118322
15,24.2734726691147
16,11.40349771392846
17,1.4531169190103129
18,2.564467760371098
2,1, 1, 1, 0,12,30.00,45.00,Tuesday
7,-3.7249999999999998
8,1821.205491197466
9,1.0
10,602.01865277251
11,1.0
12,602.01865277251
13,1821.205491197466
14,3.15286021646646
15,21.244917478155263
16,10.440571652183053
17,1.1570874142519188
18,2.653268310372986
2,1, 1, 1, 0,12,45.00,60.00,Tuesday
7,-3.3
8,1484.3573874927543
9,1.0
10,493.55004396206007
11,1.0
12,493.55004396206007
13,1484.3573874927543
14,2.971332441875786
15,17.06591530029171
16,8.976660171335653
17,0.5763212383698146
18,2.6882839863200225
2,1, 1, 1, 0,13, 0.00,15.00,Tuesday
7,-3.0249999999999996
8,1217.3467534298216
9,1.0
10,412.335026418112
11,1.0
12,412.335026418112
13,1217.3467534298216
14,2.8477258580758124
15,14.220664253552887
16,7.839041779303898
17,0.1785652950900385
18,2.6776800071540949
2,1, 1, 1, 0,13,15.00,30.00,Tuesday
7,-2.75
8,884.698883173216
9,1.0
10,305.94037763660148
11,1.0
12,305.94037763660148
13,884.698883173216
14,2.609183069562531
15,10.046414697789262
16,6.273920058263798
17,-0.4811581281109625
18,2.624066475711693
2,1, 1, 1, 0,13,30.00,45.00,Tuesday
7,-2.475
8,804.3446509208166
9,1.0
10,281.0763483922329
11,1.0
12,281.0763483922329
13,804.3446509208166
14,2.584939057348394
15,9.532541460279886
16,5.914066890950494
17,-0.38711860020066526
18,2.5609004948442379
2,1, 1, 1, 0,13,45.00,60.00,Tuesday
7,-2.2
8,725.6418045118138
9,1.0
10,256.7721209415886
11,1.0
12,256.7721209415886
13,725.6418045118138
14,2.555503908503659
15,8.925683828343413
16,5.596819442904007
17,-0.2712848239872869
18,2.509830425557346
2,1, 1, 1, 0,14, 0.00,15.00,Tuesday
7,-1.9250000000000003
8,590.7556685446293
9,1.0
10,210.73276284570657
11,1.0
12,210.73276284570657
13,590.7556685446293
14,2.457410927199065
15,7.376510230003205
16,4.9099359743562449
17,-0.41479332258921888
18,2.466180670621095
2,1, 1, 1, 0,14,15.00,30.00,Tuesday
7,-1.6500000000000002
8,521.0384688260733
9,1.0
10,189.38488290342594
11,1.0
12,189.38488290342594
13,521.0384688260733
14,2.4340800938101796
15,6.969275023780241
16,4.601802622385492
17,-0.3237259664957719
18,2.4295195540797227
2,1, 1, 1, 0,14,30.00,45.00,Tuesday
7,-1.375
8,498.15229057485149
9,1.0
10,179.3940297802914
11,1.0
12,179.3940297802914
13,498.15229057485149
14,2.4387038584224465
15,7.090347522078189
16,4.4957954148219418
17,-0.11536433635922094
18,2.4013191314178798
2,1, 1, 1, 0,14,45.00,60.00,Tuesday
7,-1.1
8,474.5397565900047
9,1.0
10,169.43349014176136
11,1.0
12,169.43349014176136
13,474.5397565900047
14,2.4411675381737285
15,7.187025355123534
16,4.38868796703116
17,0.09133026962985014
18,2.3808549984967528
2,1, 1, 1, 0,15, 0.00,15.00,Tuesday
7,-1.1
8,498.70949945430098
9,1.0
10,178.15692317953907
11,1.0
12,178.15692317953907
13,498.70949945430098
14,2.487044351977083
15,8.001198671616726
16,4.541213505623773
17,0.2267461827925672
18,2.370489007444153
2,1, 1, 1, 0,15,15.00,30.00,Tuesday
7,-1.1
8,468.37919296528846
9,1.0
10,166.40516310952945
11,1.0
12,166.40516310952945
13,468.37919296528846
14,2.4545323529781228
15,7.637236062321311
16,4.353379774506493
17,0.13501313514257164
18,2.363815393196791
2,1, 1, 1, 0,15,30.00,45.00,Tuesday
7,-1.1
8,393.0687015115151
9,1.0
10,140.8967369711617
11,1.0
12,140.8967369711617
13,393.0687015115151
14,2.3714066303948115
15,6.428920393810797
16,3.907899773755048
17,-0.1421944754378046
18,2.3487233847583597
2,1, 1, 1, 0,15,45.00,60.00,Tuesday
7,-1.1
8,321.7616953401986
9,1.0
10,116.57355796743004
11,1.0
12,116.57355796743004
13,321.7616953401986
14,2.280131392362513
15,5.215704355895844
16,3.4611978560728859
17,-0.434232640510686
18,2.3193377291736909
2,1, 1, 1, 0,16, 0.00,15.00,Tuesday
7,-1.1
8,253.93333576075279
9,1.0
10,93.14939272689483
11,1.0
12,93.14939272689483
13,253.93333576075279
14,2.194938199234942
15,4.15843968454136
16,3.029669523753455
17,-0.6656535928710241
18,2.2770332887900395
2,1, 1, 1, 0,16,15.00,30.00,Tuesday
7,-1.1
8,156.7583535986634
9,1.0
10,57.94047897402063
11,1.0
12,57.94047897402063
13,156.7583535986634
14,2.040512449316744
15,2.0274232483323368
16,2.332224604229509
17,-1.0994995651695945
18,2.2187677875913938
2,1, 1, 1, 0,16,30.00,45.00,Tuesday
7,-1.1
8,120.7720561106513
9,1.0
10,45.38251793443488
11,1.0
12,45.38251793443488
13,120.7720561106513
14,1.984283554073827
15,1.4088093848829205
16,2.0303429080085495
17,-1.2466890692484186
18,2.1528112895544675
2,1, 1, 1, 0,16,45.00,60.00,Tuesday
7,-1.1
8,83.83798514208277
9,1.0
10,32.02625108222755
11,1.0
12,32.02625108222755
13,83.83798514208277
14,1.897603431156876
15,0.5353662236126857
16,1.7413622142062196
17,-1.4102022506291406
18,2.085105244753828
2,1, 1, 1, 0,17, 0.00,15.00,Tuesday
7,-1.1
8,45.806462499356218
9,1.0
10,17.762198626050539
11,1.0
12,17.762198626050539
13,45.806462499356218
14,1.7829472527059485
15,-0.7297846537233446
16,1.402085635927392
17,-1.7082010625205158
18,2.0128545232066226
2,1, 1, 1, 0,17,15.00,30.00,Tuesday
7,-1.1
8,0.0
9,0.0
10,0.0
11,0.0
12,0.0
13,0.0
14,1.6213720337799623
15,-2.572885979383889
16,0.9937772317829854
17,-2.041033468673504
18,1.9253963061227395
2,1, 1, 1, 0,17,30.00,45.00,Tuesday
7,-1.1
8,0.0
9,0.0
10,0.0
11,0.0
12,0.0
13,0.0
14,1.5786162115221286
15,-2.714676540276063
16,0.9030219437161122
17,-2.1138900824447548
18,1.8347815893117945
2,1, 1, 1, 0,17,45.00,60.00,Tuesday
7,-1.1
8,0.0
9,0.0
10,0.0
11,0.0
12,0.0
13,0.0
14,1.5205302811938835
15,-2.9166909472473958
16,0.8449627727188727
17,-2.195294982705775
18,1.7561502120759103
2,1, 1, 1, 0,18, 0.00,15.00,Tuesday
7,-1.25
8,0.0
9,0.0
10,0.0
11,0.0
12,0.0
13,0.0
14,1.4731850923323747
15,-3.0631526620768687
16,0.7704837621087677
17,-2.3395816513171896
18,1.6937467996774903
2,1, 1, 1, 0,18,15.00,30.00,Tuesday
7,-1.4
8,0.0
9,0.0
10,0.0
11,0.0
12,0.0
13,0.0
14,1.4305298503627824
15,-3.2155002562964625
16,0.7075995600680471
17,-2.4738579828895128
18,1.6446311582119258
2,1, 1, 1, 0,18,30.00,45.00,Tuesday
7,-1.5499999999999999
8,0.0
9,0.0
10,0.0
11,0.0
12,0.0
13,0.0
14,1.3934860732377126
15,-3.367170827063912
16,0.6515645508424086
17,-2.602534389584264
18,1.604201218189091
2,1, 1, 1, 0,18,45.00,60.00,Tuesday
7,-1.7
8,0.0
9,0.0
10,0.0
11,0.0
12,0.0
13,0.0
14,1.3579814827942825
15,-3.5190758058372806
16,0.5938693002360083
17,-2.741583094752116
18,1.56880207227433
2,1, 1, 1, 0,19, 0.00,15.00,Tuesday
7,-1.825
8,0.0
9,0.0
10,0.0
11,0.0
12,0.0
13,0.0
14,1.350836933834013
15,-3.354781739199502
16,0.5700920728030496
17,-2.7465662283493659
18,1.539952170280167
2,1, 1, 1, 0,19,15.00,30.00,Tuesday
7,-1.9500000000000002
8,0.0
9,0.0
10,0.0
11,0.0
12,0.0
13,0.0
14,1.3446432810217209
15,-3.273826248673445
16,0.5523225341654552
17,-2.770367672845566
18,1.5191286031480407
2,1, 1, 1, 0,19,30.00,45.00,Tuesday
7,-2.075
8,0.0
9,0.0
10,0.0
11,0.0
12,0.0
13,0.0
14,1.3313846775448975
15,-3.3437944641907975
16,0.5240685315606015
17,-2.8554566297152066
18,1.50444412789859
2,1, 1, 1, 0,19,45.00,60.00,Tuesday
7,-2.2
8,0.0
9,0.0
10,0.0
11,0.0
12,0.0
13,0.0
14,1.3225062071805163
15,-3.3089935512414669
16,0.5072607953268289
17,-2.9010425302294609
18,1.4928764389865146
2,1, 1, 1, 0,20, 0.00,15.00,Tuesday
7,-1.9250000000000003
8,0.0
9,0.0
10,0.0
11,0.0
12,0.0
13,0.0
14,1.3291528466772394
15,-3.004646541790624
16,0.5578124666462827
17,-2.6541485521882466
18,1.484087949755369
2,1, 1, 1, 0,20,15.00,30.00,Tuesday
7,-1.6500000000000002
8,0.0
9,0.0
10,0.0
11,0.0
12,0.0
13,0.0
14,1.336738280330719
15,-2.7036091878562247
16,0.6097580961016433
17,-2.402772088140523
18,1.478222052404979
2,1, 1, 1, 0,20,30.00,45.00,Tuesday
7,-1.375
8,0.0
9,0.0
10,0.0
11,0.0
12,0.0
13,0.0
14,1.3458283204349524
15,-2.4040194948963684
16,0.6632557852710761
17,-2.150394838881425
18,1.4749441641539752
2,1, 1, 1, 0,20,45.00,60.00,Tuesday
7,-1.1
8,0.0
9,0.0
10,0.0
11,0.0
12,0.0
13,0.0
14,1.3559240619359335
15,-2.105834373389505
16,0.718344993375581
17,-1.8971008095891194
18,1.473682013176248
2,1, 1, 1, 0,21, 0.00,15.00,Tuesday
7,-1.25
8,0.0
9,0.0
10,0.0
11,0.0
12,0.0
13,0.0
14,1.3221195083504594
15,-2.399872283100236
16,0.6707752996528598
17,-2.088336826354123
18,1.4686019233704193
2,1, 1, 1, 0,21,15.00,30.00,Tuesday
7,-1.4
8,0.0
9,0.0
10,0.0
11,0.0
12,0.0
13,0.0
14,1.2859036046614257
15,-2.623270935641113
16,0.6177274967293442
17,-2.2377304133019608
18,1.4547762779295919
2,1, 1, 1, 0,21,30.00,45.00,Tuesday
7,-1.5499999999999999
8,0.0
9,0.0
10,0.0
11,0.0
12,0.0
13,0.0
14,1.236812245483857
15,-2.984343900554453
16,0.5512404797310069
17,-2.452344762773805
18,1.4304243894451943
2,1, 1, 1, 0,21,45.00,60.00,Tuesday
7,-1.7
8,0.0
9,0.0
10,0.0
11,0.0
12,0.0
13,0.0
14,1.1824571944554164
15,-3.4553317101572484
16,0.4687561074616724
17,-2.6912947014016028
18,1.3969329912358946
2,1, 1, 1, 0,22, 0.00,15.00,Tuesday
7,-1.5499999999999999
8,0.0
9,0.0
10,0.0
11,0.0
12,0.0
13,0.0
14,1.202532541966688
15,-2.945063786057422
16,0.49574989650693626
17,-2.4430116673681825
18,1.3678707069027132
2,1, 1, 1, 0,22,15.00,30.00,Tuesday
7,-1.4
8,0.0
9,0.0
10,0.0
11,0.0
12,0.0
13,0.0
14,1.2150958122994827
15,-2.5994229844210174
16,0.539818185460831
17,-2.237811783806137
18,1.3513311757519855
2,1, 1, 1, 0,22,30.00,45.00,Tuesday
7,-1.25
8,0.0
9,0.0
10,0.0
11,0.0
12,0.0
13,0.0
14,1.2248837588314726
15,-2.3724132596402018
16,0.5780072714585458
17,-2.085930163232206
18,1.3458931050655812
2,1, 1, 1, 0,22,45.00,60.00,Tuesday
7,-1.1
8,0.0
9,0.0
10,0.0
11,0.0
12,0.0
13,0.0
14,1.2383536487492067
15,-2.077410565797175
16,0.6224543638357432
17,-1.880725494760668
18,1.3467548433057384
2,1, 1, 1, 0,23, 0.00,15.00,Tuesday
7,-1.25
8,0.0
9,0.0
10,0.0
11,0.0
12,0.0
13,0.0
14,1.2049186455577304
15,-2.381253675573182
16,0.5544859794349577
17,-2.171040997960972
18,1.3444678954129459
2,1, 1, 1, 0,23,15.00,30.00,Tuesday
7,-1.4
8,0.0
9,0.0
10,0.0
11,0.0
12,0.0
13,0.0
14,1.1714507699349266
15,-2.6858274540167486
16,0.4721511704801742
17,-2.4685146949984757
18,1.3333120323587049
2,1, 1, 1, 0,23,30.00,45.00,Tuesday
7,-1.5499999999999999
8,0.0
9,0.0
10,0.0
11,0.0
12,0.0
13,0.0
14,1.1338598431237333
15,-2.990883748168814
16,0.38824153206775238
17,-2.765984907145821
18,1.3131204639806305
2,1, 1, 1, 0,23,45.00,60.00,Tuesday
7,-1.7
8,0.0
9,0.0
10,0.0
11,0.0
12,0.0
13,0.0
14,1.0938121057408108
15,-3.296264733523099
16,0.300996522002265
17,-3.063831992666678
18,1.2861671884445563
2,1, 1, 1, 0,24, 0.00,15.00,Tuesday
7,-1.7
8,0.0
9,0.0
10,0.0
11,0.0
12,0.0
13,0.0
14,1.0717859795044394
15,-3.3498744207074746
16,0.2653151143580317
17,-3.1218141107755175
18,1.257662324522107
2,1, 1, 1, 0,24,15.00,30.00,Tuesday
7,-1.7
8,0.0
9,0.0
10,0.0
11,0.0
12,0.0
13,0.0
14,1.04669874466292
15,-3.4043254088415719
16,0.23427951076791943
17,-3.180473284169466
18,1.230765920121263
2,1, 1, 1, 0,24,30.00,45.00,Tuesday
7,-1.7
8,0.0
9,0.0
10,0.0
11,0.0
12,0.0
13,0.0
14,1.0221781350110429
15,-3.45864133551116
16,0.20253107940743576
17,-3.2394119114193815
18,1.2058839450100625
2,1, 1, 1, 0,24,45.00,60.00,Tuesday
7,-1.7
8,0.0
9,0.0
10,0.0
11,0.0
12,0.0
13,0.0
14,0.9982018310983992
15,-3.5129554912969818
16,0.17136597249282205
17,-3.2981902474675168
18,1.1823334109928816
End of Data
 Number of Records Written=        1152
