Program Version,EnergyPlus, Version 9.5.0-de239b2e5f, YMD=2023.02.17 18:13
1,5,Environment Title[],Latitude[deg],Longitude[deg],Time Zone[],Elevation[m]
2,8,Day of Simulation[],Month[],Day of Month[],DST Indicator[1=yes 0=no],Hour[],StartMinute[],EndMinute[],DayType
3,5,Cumulative Day of Simulation[],Month[],Day of Month[],DST Indicator[1=yes 0=no],DayType  ! When Daily Report Variables Requested
4,2,Cumulative Days of Simulation[],Month[]  ! When Monthly Report Variables Requested
5,1,Cumulative Days of Simulation[] ! When Run Period Report Variables Requested
6,1,Calendar Year of Simulation[] ! When Annual Report Variables Requested
7,1,Environment,Site Outdoor Air Drybulb Temperature [C] !TimeStep
8,1,ZONE ONE,Zone Windows Total Transmitted Solar Radiation Rate [W] !TimeStep
9,1,ZN001:WALL001,Surface Outside Face Sunlit Fraction [] !TimeStep
10,1,ZN001:WALL001,Surface Outside Face Incident Solar Radiation Rate per Area [W/m2] !TimeStep
11,1,ZN001:WALL001:WIN001,Surface Outside Face Sunlit Fraction [] !TimeStep
12,1,ZN001:WALL001:WIN001,Surface Outside Face Incident Solar Radiation Rate per Area [W/m2] !TimeStep
13,1,ZN001:WALL001:WIN001,Surface Window Transmitted Solar Radiation Rate [W] !TimeStep
14,1,ZN001:WALL001,Surface Inside Face Temperature [C] !TimeStep
15,1,ZN001:WALL001,Surface Outside Face Temperature [C] !TimeStep
16,1,ZN001:WALL001:WIN001,Surface Inside Face Temperature [C] !TimeStep
17,1,ZN001:WALL001:WIN001,Surface Outside Face Temperature [C] !TimeStep
18,1,ZONE ONE,Zone Mean Air Temperature [C] !TimeStep
End of Data Dictionary
1,RUN PERIOD 1,  41.98, -87.92,  -6.00, 201.00
2,1, 1, 1, 0, 1, 0.00,15.00,Tuesday
7,-4.324999999999999
8,0.0
9,0.0
10,0.0
11,0.0
12,0.0
13,0.0
14,5.332951043403267
15,-5.9068377921116979
16,2.1736091469207396
17,-3.7706833546317286
18,5.764145179333384
2,1, 1, 1, 0, 1,15.00,30.00,Tuesday
7,-6.949999999999999
8,0.0
9,0.0
10,0.0
11,0.0
12,0.0
13,0.0
14,5.145859883510302
15,-8.37445048926769
16,1.388189728161592
17,-5.7212250131779
18,5.6594315523747469
2,1, 1, 1, 0, 1,30.00,45.00,Tuesday
7,-9.575
8,0.0
9,0.0
10,0.0
11,0.0
12,0.0
13,0.0
14,4.936976141741286
15,-10.850167037607447
16,0.5967268040720342
17,-7.677832951712958
18,5.520037092944747
2,1, 1, 1, 0, 1,45.00,60.00,Tuesday
7,-12.2
8,0.0
9,0.0
10,0.0
11,0.0
12,0.0
13,0.0
14,4.710874163350577
15,-13.332508636805633
16,-0.20936872326069534
17,-9.64272172534703
18,5.356720110814562
2,1, 1, 1, 0, 2, 0.00,15.00,Tuesday
7,-12.075
8,0.0
9,0.0
10,0.0
11,0.0
12,0.0
13,0.0
14,4.637297772543452
15,-13.133720245779099
16,-0.25050520548268198
17,-9.502273153395948
18,5.21059296123933
2,1, 1, 1, 0, 2,15.00,30.00,Tuesday
7,-11.95
8,0.0
9,0.0
10,0.0
11,0.0
12,0.0
13,0.0
14,4.55048212841252
15,-12.956723567862009
16,-0.2652040014390309
17,-9.38657462630374
18,5.099771693129092
2,1, 1, 1, 0, 2,30.00,45.00,Tuesday
7,-11.825
8,0.0
9,0.0
10,0.0
11,0.0
12,0.0
13,0.0
14,4.482328961793348
15,-12.778499201671039
16,-0.2818598532305714
17,-9.250240747939415
18,5.017842144713579
2,1, 1, 1, 0, 2,45.00,60.00,Tuesday
7,-11.7
8,0.0
9,0.0
10,0.0
11,0.0
12,0.0
13,0.0
14,4.426392296083726
15,-12.600359640710736
16,-0.27754035757379827
17,-9.128632456318428
18,4.952687775904253
2,1, 1, 1, 0, 3, 0.00,15.00,Tuesday
7,-11.549999999999999
8,0.0
9,0.0
10,0.0
11,0.0
12,0.0
13,0.0
14,4.3725480228975439
15,-12.47440947356133
16,-0.2639802424895379
17,-8.9854637579229
18,4.8947261047003389
2,1, 1, 1, 0, 3,15.00,30.00,Tuesday
7,-11.399999999999999
8,0.0
9,0.0
10,0.0
11,0.0
12,0.0
13,0.0
14,4.322125927271503
15,-12.349836005844065
16,-0.24936507548625287
17,-8.840569314463665
18,4.839266693217362
2,1, 1, 1, 0, 3,30.00,45.00,Tuesday
7,-11.25
8,0.0
9,0.0
10,0.0
11,0.0
12,0.0
13,0.0
14,4.272705521813586
15,-12.226794779153403
16,-0.23315506892004124
17,-8.695243740850401
18,4.784936340406204
2,1, 1, 1, 0, 3,45.00,60.00,Tuesday
7,-11.1
8,0.0
9,0.0
10,0.0
11,0.0
12,0.0
13,0.0
14,4.223889949997371
15,-12.105341175316739
16,-0.21631092658913077
17,-8.550044891141966
18,4.731551530421718
2,1, 1, 1, 0, 4, 0.00,15.00,Tuesday
7,-11.1
8,0.0
9,0.0
10,0.0
11,0.0
12,0.0
13,0.0
14,4.1710023615635098
15,-12.07688090687642
16,-0.2802752550328478
17,-8.592192450152652
18,4.677753733794344
2,1, 1, 1, 0, 4,15.00,30.00,Tuesday
7,-11.1
8,0.0
9,0.0
10,0.0
11,0.0
12,0.0
13,0.0
14,4.118465315914413
15,-12.049530372677486
16,-0.3357000280797706
17,-8.641306959183453
18,4.62309775536328
2,1, 1, 1, 0, 4,30.00,45.00,Tuesday
7,-11.1
8,0.0
9,0.0
10,0.0
11,0.0
12,0.0
13,0.0
14,4.065571243987291
15,-12.023718115418886
16,-0.3898966167668618
17,-8.69037128570426
18,4.567848974750797
2,1, 1, 1, 0, 4,45.00,60.00,Tuesday
7,-11.1
8,0.0
9,0.0
10,0.0
11,0.0
12,0.0
13,0.0
14,4.012497101105205
15,-11.999308718454375
16,-0.44373562926568868
17,-8.738428288530486
18,4.512381650563907
2,1, 1, 1, 0, 5, 0.00,15.00,Tuesday
7,-10.975
8,0.0
9,0.0
10,0.0
11,0.0
12,0.0
13,0.0
14,3.9652863585012279
15,-11.877387353105217
16,-0.44354289601687926
17,-8.662953643239576
18,4.4582408670198598
2,1, 1, 1, 0, 5,15.00,30.00,Tuesday
7,-10.85
8,0.0
9,0.0
10,0.0
11,0.0
12,0.0
13,0.0
14,3.918371324659167
15,-11.75553295522547
16,-0.44664830489006138
17,-8.579664749631548
18,4.406006259579624
2,1, 1, 1, 0, 5,30.00,45.00,Tuesday
7,-10.725
8,0.0
9,0.0
10,0.0
11,0.0
12,0.0
13,0.0
14,3.8726328462550665
15,-11.633652230065989
16,-0.44965170554814906
17,-8.495259958878876
18,4.355377469530467
2,1, 1, 1, 0, 5,45.00,60.00,Tuesday
7,-10.6
8,0.0
9,0.0
10,0.0
11,0.0
12,0.0
13,0.0
14,3.8278640627122026
15,-11.511780088120002
16,-0.451846480680274
17,-8.41047176083714
18,4.305882384885511
2,1, 1, 1, 0, 6, 0.00,15.00,Tuesday
7,-10.6
8,0.0
9,0.0
10,0.0
11,0.0
12,0.0
13,0.0
14,3.775970731243046
15,-11.512799980979122
16,-0.49292413384699787
17,-8.415671040431448
18,4.255719791707237
2,1, 1, 1, 0, 6,15.00,30.00,Tuesday
7,-10.6
8,0.0
9,0.0
10,0.0
11,0.0
12,0.0
13,0.0
14,3.724720649038828
15,-11.513761223441469
16,-0.5322390367612684
17,-8.426842811663733
18,4.2041190763932809
2,1, 1, 1, 0, 6,30.00,45.00,Tuesday
7,-10.6
8,0.0
9,0.0
10,0.0
11,0.0
12,0.0
13,0.0
14,3.6729004045596409
15,-11.514766104802357
16,-0.5712528116806652
17,-8.438690725187258
18,4.151398291193908
2,1, 1, 1, 0, 6,45.00,60.00,Tuesday
7,-10.6
8,0.0
9,0.0
10,0.0
11,0.0
12,0.0
13,0.0
14,3.620751440980708
15,-11.51576861920493
16,-0.610598073205324
17,-8.45075385181292
18,4.098125587409033
2,1, 1, 1, 0, 7, 0.00,15.00,Tuesday
7,-10.6
8,0.0
9,0.0
10,0.0
11,0.0
12,0.0
13,0.0
14,3.5705282665844146
15,-11.492242531458075
16,-0.6631111514112718
17,-8.492338093661886
18,4.044903384755608
2,1, 1, 1, 0, 7,15.00,30.00,Tuesday
7,-10.6
8,0.0
9,0.0
10,0.0
11,0.0
12,0.0
13,0.0
14,3.5201612063462499
15,-11.469940169768105
16,-0.7131758072295042
17,-8.534306155550667
18,3.9920675901225914
2,1, 1, 1, 0, 7,30.00,45.00,Tuesday
7,-10.6
8,0.0
9,0.0
10,0.0
11,0.0
12,0.0
13,0.0
14,3.4700434875511307
15,-11.44877244040091
16,-0.7625618571813675
17,-8.575392707975198
18,3.939637346864251
2,1, 1, 1, 0, 7,45.00,60.00,Tuesday
7,-10.6
8,0.0
9,0.0
10,0.0
11,0.0
12,0.0
13,0.0
14,3.4202002590084574
15,-11.428671427523448
16,-0.8113127080516733
17,-8.61536020928014
18,3.887538507315623
2,1, 1, 1, 0, 8, 0.00,15.00,Tuesday
7,-10.45
8,0.0
9,0.0
10,0.0
11,0.0
12,0.0
13,0.0
14,3.36997329832417
15,-11.379768017786482
16,-0.8182305017172098
17,-8.560994281333592
18,3.8357196868059084
2,1, 1, 1, 0, 8,15.00,30.00,Tuesday
7,-10.3
8,164.70730277996078
9,1.0
10,22.819555959623899
11,1.0
12,22.819555959623899
13,164.70730277996078
14,3.4432352753271115
15,-9.706113609960994
16,-0.4987027421257153
17,-8.211097481643492
18,3.8028341693598088
2,1, 1, 1, 0, 8,30.00,45.00,Tuesday
7,-10.15
8,808.7145075753374
9,1.0
10,109.75755355442667
11,1.0
12,109.75755355442667
13,808.7145075753374
14,3.854732590710206
15,-3.3364832642479609
16,0.8139535198899921
17,-7.0336642717729209
18,3.840804852202991
2,1, 1, 1, 0, 8,45.00,60.00,Tuesday
7,-10.0
8,1470.5605139501664
9,1.0
10,195.8764694434918
11,1.0
12,195.8764694434918
13,1470.5605139501664
14,4.397001095399058
15,3.1614419191094966
16,2.2281929042224535
17,-5.831915607720134
18,3.9561868759974527
2,1, 1, 1, 0, 9, 0.00,15.00,Tuesday
7,-9.725
8,2130.1268679617157
9,1.0
10,278.97248314719988
11,1.0
12,278.97248314719988
13,2130.1268679617157
14,4.798241659546781
15,8.321306336843952
16,3.6482098730593295
17,-4.7550321385708689
18,4.1267136427521209
2,1, 1, 1, 0, 9,15.00,30.00,Tuesday
7,-9.45
8,2825.385387072841
9,1.0
10,364.91995730569456
11,1.0
12,364.91995730569456
13,2825.385387072841
14,5.242590067806267
15,13.403679764742959
16,5.177379489786631
17,-3.6520748137176044
18,4.343538018724194
2,1, 1, 1, 0, 9,30.00,45.00,Tuesday
7,-9.175
8,3285.3657815806207
9,1.0
10,420.35879993239237
11,1.0
12,420.35879993239237
13,3285.3657815806207
14,5.563118243887692
15,16.161151452626279
16,6.154190962611722
17,-2.970158251176713
18,4.584378939538018
2,1, 1, 1, 0, 9,45.00,60.00,Tuesday
7,-8.9
8,3762.8630174369429
9,1.0
10,478.00138373643099
11,1.0
12,478.00138373643099
13,3762.8630174369429
14,5.935501449990748
15,19.156202106931297
16,7.1312073459513389
17,-2.2732844576801769
18,4.838617110629443
2,1, 1, 1, 0,10, 0.00,15.00,Tuesday
7,-8.350000000000002
8,4250.448423053731
9,1.0
10,536.9185644770597
11,1.0
12,536.9185644770597
13,4250.448423053731
14,6.2546226735406
15,20.2733741419692
16,8.116014772164249
17,-1.5929171346072622
18,5.106417474027856
2,1, 1, 1, 0,10,15.00,30.00,Tuesday
7,-7.800000000000001
8,4754.8784400001809
9,1.0
10,598.0969199229219
11,1.0
12,598.0969199229219
13,4754.8784400001809
14,6.602559574442944
15,21.526012669096376
16,9.115644292604998
17,-0.9119992876654806
18,5.393491186848191
2,1, 1, 1, 0,10,30.00,45.00,Tuesday
7,-7.25
8,5085.790385716765
9,1.0
10,637.6133352894237
11,1.0
12,637.6133352894237
13,5085.790385716765
14,6.873065706926396
15,21.58538114259054
16,9.828307756326467
17,-0.4496775682143834
18,5.5141037902121099
2,1, 1, 1, 0,10,45.00,60.00,Tuesday
7,-6.7
8,5411.8281742364
9,1.0
10,676.6412284283772
11,1.0
12,676.6412284283772
13,5411.8281742364
14,7.122272192759918
15,21.74411654999307
16,10.496414809003568
17,0.005409298544918784
18,5.751689023296376
2,1, 1, 1, 0,11, 0.00,15.00,Tuesday
7,-6.275
8,5731.93450410702
9,1.0
10,715.0112779846514
11,1.0
12,715.0112779846514
13,5731.93450410702
14,7.420983849935395
15,23.840913544338706
16,11.221573932541674
17,0.717404923202082
18,5.93607254885865
2,1, 1, 1, 0,11,15.00,30.00,Tuesday
7,-5.85
8,6044.505928231053
9,1.0
10,752.5077794605232
11,1.0
12,752.5077794605232
13,6044.505928231053
14,7.785646837543712
15,25.77774686773271
16,11.964533094580588
17,1.4192033868984027
18,6.3678197579777369
2,1, 1, 1, 0,11,30.00,45.00,Tuesday
7,-5.425
8,5951.610197095371
9,1.0
10,742.5988714321785
11,1.0
12,742.5988714321785
13,5951.610197095371
14,8.065954877822318
15,25.63140498142342
16,12.173282988081212
17,1.7072872539899323
18,6.75043456708317
2,1, 1, 1, 0,11,45.00,60.00,Tuesday
7,-5.0
8,5818.873031211445
9,1.0
10,727.8169025450712
11,1.0
12,727.8169025450712
13,5818.873031211445
14,8.309261081811862
15,25.40236751804234
16,12.299169081998685
17,1.9593087725140209
18,7.075540095294603
2,1, 1, 1, 0,12, 0.00,15.00,Tuesday
7,-4.575
8,5590.605323962885
9,1.0
10,700.3759009170325
11,1.0
12,700.3759009170325
13,5590.605323962885
14,8.481256723474545
15,24.6602223086145
16,12.264613390061868
17,2.1402231696999935
18,7.349754287472696
2,1, 1, 1, 0,12,15.00,30.00,Tuesday
7,-4.15
8,5421.315289253884
9,1.0
10,681.6705029034473
11,1.0
12,681.6705029034473
13,5421.315289253884
14,8.638565205934889
15,24.329347885616007
16,12.292994624491826
17,2.3875495671021556
18,7.587063985508057
2,1, 1, 1, 0,12,30.00,45.00,Tuesday
7,-3.7249999999999998
8,4759.463309286249
9,1.0
10,602.01865277251
11,1.0
12,602.01865277251
13,4759.463309286249
14,8.58149535027838
15,21.30207632892607
16,11.576925205428779
17,2.119050829950311
18,7.7650735670540309
2,1, 1, 1, 0,12,45.00,60.00,Tuesday
7,-3.3
8,3887.1134706147715
9,1.0
10,493.55004396206007
11,1.0
12,493.55004396206007
13,3887.1134706147715
14,8.394320936412285
15,17.123885005472304
16,10.41179217138864
17,1.577345038277656
18,7.858086644705088
2,1, 1, 1, 0,13, 0.00,15.00,Tuesday
7,-3.0249999999999996
8,3209.574868603734
9,1.0
10,412.335026418112
11,1.0
12,412.335026418112
13,3209.574868603734
14,8.265994580456033
15,14.28005714453879
16,9.485048275967359
17,1.203554688187296
18,7.88338181353005
2,1, 1, 1, 0,13,15.00,30.00,Tuesday
7,-2.75
8,2350.7180690914585
9,1.0
10,305.94037763660148
11,1.0
12,305.94037763660148
13,2350.7180690914585
14,7.961505432388324
15,10.10740223687871
16,8.163369428205784
17,0.5769841396472089
18,7.85164970901464
2,1, 1, 1, 0,13,30.00,45.00,Tuesday
7,-2.475
8,2146.122384804586
9,1.0
10,281.0763483922329
11,1.0
12,281.0763483922329
13,2146.122384804586
14,7.940298854843046
15,9.595489039360656
16,7.87718524267234
17,0.6625543086399262
18,7.802705761682128
2,1, 1, 1, 0,13,45.00,60.00,Tuesday
7,-2.2
8,1945.7887113955822
9,1.0
10,256.7721209415886
11,1.0
12,256.7721209415886
13,1945.7887113955822
14,7.9038611178202109
15,8.988371300209148
16,7.660268314860673
17,0.7742121309615868
18,7.762320043846503
2,1, 1, 1, 0,14, 0.00,15.00,Tuesday
7,-1.9250000000000003
8,1589.5114814468812
9,1.0
10,210.73276284570657
11,1.0
12,210.73276284570657
13,1589.5114814468812
14,7.763759830845567
15,7.441530353064874
16,7.132109429962043
17,0.6516541804159601
18,7.726196468820481
2,1, 1, 1, 0,14,15.00,30.00,Tuesday
7,-1.6500000000000002
8,1411.9992818845379
9,1.0
10,189.38488290342594
11,1.0
12,189.38488290342594
13,1411.9992818845379
14,7.729987926025033
15,7.036179099878443
16,6.9162957697921
17,0.7607580945395966
18,7.693927107969315
2,1, 1, 1, 0,14,30.00,45.00,Tuesday
7,-1.375
8,1346.6477146256526
9,1.0
10,179.3940297802914
11,1.0
12,179.3940297802914
13,1346.6477146256526
14,7.72247123430727
15,7.159074268220396
16,6.9012296467916489
17,0.9854250317091555
18,7.667250651145989
2,1, 1, 1, 0,14,45.00,60.00,Tuesday
7,-1.1
8,1280.5495415471219
9,1.0
10,169.43349014176136
11,1.0
12,169.43349014176136
13,1280.5495415471219
14,7.7105531819075658
15,7.258280081608519
16,6.880415723517842
17,1.2066785206769737
18,7.645910352480729
2,1, 1, 1, 0,15, 0.00,15.00,Tuesday
7,-1.1
8,1347.8587297811799
9,1.0
10,178.15692317953907
11,1.0
12,178.15692317953907
13,1347.8587297811799
14,7.771206978706285
15,8.075400843609547
16,7.023412824296258
17,1.3587275496309417
18,7.633572376604828
2,1, 1, 1, 0,15,15.00,30.00,Tuesday
7,-1.1
8,1266.276259391967
9,1.0
10,166.40516310952945
11,1.0
12,166.40516310952945
13,1266.276259391967
14,7.720557009994092
15,7.713398550522675
16,6.890552402244396
17,1.3048882046168729
18,7.6239147223760759
2,1, 1, 1, 0,15,30.00,45.00,Tuesday
7,-1.1
8,1067.701389865137
9,1.0
10,140.8967369711617
11,1.0
12,140.8967369711617
13,1067.701389865137
14,7.604054699464211
15,6.5073480682296369
16,6.518012076249192
17,1.0750813139303546
18,7.605789934643077
2,1, 1, 1, 0,15,45.00,60.00,Tuesday
7,-1.1
8,878.6312280760801
9,1.0
10,116.57355796743004
11,1.0
12,116.57355796743004
13,878.6312280760801
14,7.474312999417099
15,5.290484459907789
16,6.148192059249482
17,0.8387124806346265
18,7.5707703567642519
2,1, 1, 1, 0,16, 0.00,15.00,Tuesday
7,-1.1
8,697.3318727282369
9,1.0
10,93.14939272689483
11,1.0
12,93.14939272689483
13,697.3318727282369
14,7.373474862387653
15,4.248344435086611
16,5.825162143154898
17,0.6850818162025689
18,7.516338182098048
2,1, 1, 1, 0,16,15.00,30.00,Tuesday
7,-1.1
8,432.9048901425401
9,1.0
10,57.94047897402063
11,1.0
12,57.94047897402063
13,432.9048901425401
14,7.1756303600415
15,2.123048394972828
16,5.317410849798762
17,0.3743679052910238
18,7.434043920049032
2,1, 1, 1, 0,16,30.00,45.00,Tuesday
7,-1.1
8,335.64270075152066
9,1.0
10,45.38251793443488
11,1.0
12,45.38251793443488
13,335.64270075152066
14,7.09871322766418
15,1.513043299994792
16,5.113477529047657
17,0.3239022211033671
18,7.339503569327153
2,1, 1, 1, 0,16,45.00,60.00,Tuesday
7,-1.1
8,234.3008415590897
9,1.0
10,32.02625108222755
11,1.0
12,32.02625108222755
13,234.3008415590897
14,6.98192730650322
15,0.649597144806506
16,4.91749751480711
17,0.2683894956089148
18,7.2461831614764489
2,1, 1, 1, 0,17, 0.00,15.00,Tuesday
7,-1.1
8,128.5136834333092
9,1.0
10,17.762198626050539
11,1.0
12,17.762198626050539
13,128.5136834333092
14,6.840236384698724
15,-0.601619164247126
16,4.65992235257886
17,0.10690281630638765
18,7.153311017099261
2,1, 1, 1, 0,17,15.00,30.00,Tuesday
7,-1.1
8,0.0
9,0.0
10,0.0
11,0.0
12,0.0
13,0.0
14,6.64804368043939
15,-2.4389255274646728
16,4.312156230866776
17,-0.1831459109557727
18,7.048431766510671
2,1, 1, 1, 0,17,30.00,45.00,Tuesday
7,-1.1
8,0.0
9,0.0
10,0.0
11,0.0
12,0.0
13,0.0
14,6.5917347895003479
15,-2.5745979099603875
16,4.247871119070737
17,-0.1593348493652229
18,6.946206473851431
2,1, 1, 1, 0,17,45.00,60.00,Tuesday
7,-1.1
8,0.0
9,0.0
10,0.0
11,0.0
12,0.0
13,0.0
14,6.519327906742494
15,-2.765581409159263
16,4.218685229237963
17,-0.11752279398319843
18,6.8603218520485769
2,1, 1, 1, 0,18, 0.00,15.00,Tuesday
7,-1.25
8,0.0
9,0.0
10,0.0
11,0.0
12,0.0
13,0.0
14,6.458176976326712
15,-2.913438339744621
16,4.121492769675001
17,-0.24583456273376215
18,6.791161040917693
2,1, 1, 1, 0,18,15.00,30.00,Tuesday
7,-1.4
8,0.0
9,0.0
10,0.0
11,0.0
12,0.0
13,0.0
14,6.402186138005581
15,-3.0659083734694567
16,4.037730941049631
17,-0.370842296011233
18,6.733416948418091
2,1, 1, 1, 0,18,30.00,45.00,Tuesday
7,-1.5499999999999999
8,0.0
9,0.0
10,0.0
11,0.0
12,0.0
13,0.0
14,6.350239064942898
15,-3.2179201103426555
16,3.9584988336636117
17,-0.49474418495196917
18,6.681824435912841
2,1, 1, 1, 0,18,45.00,60.00,Tuesday
7,-1.7
8,0.0
9,0.0
10,0.0
11,0.0
12,0.0
13,0.0
14,6.300175164062889
15,-3.3701047774921459
16,3.8819336184402575
17,-0.617798423045997
18,6.6331271294139448
2,1, 1, 1, 0,19, 0.00,15.00,Tuesday
7,-1.825
8,0.0
9,0.0
10,0.0
11,0.0
12,0.0
13,0.0
14,6.274823606182158
15,-3.222983160131134
16,3.7787606458274469
17,-0.8022882039637693
18,6.588980008743528
2,1, 1, 1, 0,19,15.00,30.00,Tuesday
7,-1.9500000000000002
8,0.0
9,0.0
10,0.0
11,0.0
12,0.0
13,0.0
14,6.248220147548041
15,-3.1572065289013748
16,3.692401759334018
17,-0.973282562264103
18,6.551128290135281
2,1, 1, 1, 0,19,30.00,45.00,Tuesday
7,-2.075
8,0.0
9,0.0
10,0.0
11,0.0
12,0.0
13,0.0
14,6.2170982957968639
15,-3.231326308273068
16,3.6321005745450067
17,-1.0923818197095443
18,6.518430378646833
2,1, 1, 1, 0,19,45.00,60.00,Tuesday
7,-2.2
8,0.0
9,0.0
10,0.0
11,0.0
12,0.0
13,0.0
14,6.188591132581052
15,-3.2099596226737958
16,3.549548216851008
17,-1.2558028588121602
18,6.487822341774758
2,1, 1, 1, 0,20, 0.00,15.00,Tuesday
7,-1.9250000000000003
8,0.0
9,0.0
10,0.0
11,0.0
12,0.0
13,0.0
14,6.176618423700408
15,-2.90903396483714
16,3.616380885185208
17,-1.084519466785082
18,6.460421754266605
2,1, 1, 1, 0,20,15.00,30.00,Tuesday
7,-1.6500000000000002
8,0.0
9,0.0
10,0.0
11,0.0
12,0.0
13,0.0
14,6.165191561693314
15,-2.6110550403729486
16,3.6691790320107318
17,-0.8834193119489555
18,6.436834374801465
2,1, 1, 1, 0,20,30.00,45.00,Tuesday
7,-1.375
8,0.0
9,0.0
10,0.0
11,0.0
12,0.0
13,0.0
14,6.155837259527119
15,-2.3143528807307769
16,3.7280796569552878
17,-0.6870494135380341
18,6.416560082572344
2,1, 1, 1, 0,20,45.00,60.00,Tuesday
7,-1.1
8,0.0
9,0.0
10,0.0
11,0.0
12,0.0
13,0.0
14,6.149204026857563
15,-2.01890351751384
16,3.789770862054411
17,-0.4880848060669791
18,6.398859945003523
2,1, 1, 1, 0,21, 0.00,15.00,Tuesday
7,-1.25
8,0.0
9,0.0
10,0.0
11,0.0
12,0.0
13,0.0
14,6.099314566893434
15,-2.2992979470653749
16,3.754762636632563
17,-0.5332521061988018
18,6.376643767696899
2,1, 1, 1, 0,21,15.00,30.00,Tuesday
7,-1.4
8,0.0
9,0.0
10,0.0
11,0.0
12,0.0
13,0.0
14,6.051168282960938
15,-2.5154127596883937
16,3.6999665214310655
17,-0.6116581007971718
18,6.3449892010694139
2,1, 1, 1, 0,21,30.00,45.00,Tuesday
7,-1.5499999999999999
8,0.0
9,0.0
10,0.0
11,0.0
12,0.0
13,0.0
14,5.989749511762159
15,-2.8587146447548368
16,3.6630661688039938
17,-0.646191996986488
18,6.303238636872084
2,1, 1, 1, 0,21,45.00,60.00,Tuesday
7,-1.7
8,0.0
9,0.0
10,0.0
11,0.0
12,0.0
13,0.0
14,5.923160487177338
15,-3.309445024226104
16,3.630212636640181
17,-0.6523152701973913
18,6.253845072727329
2,1, 1, 1, 0,22, 0.00,15.00,Tuesday
7,-1.5499999999999999
8,0.0
9,0.0
10,0.0
11,0.0
12,0.0
13,0.0
14,5.924963504235978
15,-2.8233357762135826
16,3.589418745610601
17,-0.6671551137666256
18,6.209890347527885
2,1, 1, 1, 0,22,15.00,30.00,Tuesday
7,-1.4
8,0.0
9,0.0
10,0.0
11,0.0
12,0.0
13,0.0
14,5.916736251981405
15,-2.494263222831152
16,3.5897611240397966
17,-0.6462096979736316
18,6.178554200598306
2,1, 1, 1, 0,22,30.00,45.00,Tuesday
7,-1.25
8,0.0
9,0.0
10,0.0
11,0.0
12,0.0
13,0.0
14,5.9073068691851919
15,-2.274656556887599
16,3.6048701007875367
17,-0.5701777417458516
18,6.157752157864234
2,1, 1, 1, 0,22,45.00,60.00,Tuesday
7,-1.1
8,0.0
9,0.0
10,0.0
11,0.0
12,0.0
13,0.0
14,5.901686115004826
15,-1.9929540409521214
16,3.6129035214495959
17,-0.5174404073933943
18,6.142262588491789
2,1, 1, 1, 0,23, 0.00,15.00,Tuesday
7,-1.25
8,0.0
9,0.0
10,0.0
11,0.0
12,0.0
13,0.0
14,5.850647532417696
15,-2.296392794480251
16,3.4963668669548726
17,-0.7754436946887608
18,6.1212876989023778
2,1, 1, 1, 0,23,15.00,30.00,Tuesday
7,-1.4
8,0.0
9,0.0
10,0.0
11,0.0
12,0.0
13,0.0
14,5.802715231936501
15,-2.6010279695616909
16,3.370491481438876
17,-1.0480092266301995
18,6.089667207967458
2,1, 1, 1, 0,23,30.00,45.00,Tuesday
7,-1.5499999999999999
8,0.0
9,0.0
10,0.0
11,0.0
12,0.0
13,0.0
14,5.749903994595534
15,-2.906349962171578
16,3.243014280743239
17,-1.32195130634193
18,6.048696667049591
2,1, 1, 1, 0,23,45.00,60.00,Tuesday
7,-1.7
8,0.0
9,0.0
10,0.0
11,0.0
12,0.0
13,0.0
14,5.693086255260142
15,-3.2120125294710535
16,3.111632568640516
17,-1.5978160556228432
18,6.001506933256677
2,1, 1, 1, 0,24, 0.00,15.00,Tuesday
7,-1.7
8,0.0
9,0.0
10,0.0
11,0.0
12,0.0
13,0.0
14,5.652722060486074
15,-3.2661024077032096
16,3.0589710550557358
17,-1.6638244961268356
18,5.954042072505147
2,1, 1, 1, 0,24,15.00,30.00,Tuesday
7,-1.7
8,0.0
9,0.0
10,0.0
11,0.0
12,0.0
13,0.0
14,5.6102531488077009
15,-3.320813581614057
16,3.009549355680292
17,-1.7255907911439863
18,5.909388803551465
2,1, 1, 1, 0,24,30.00,45.00,Tuesday
7,-1.7
8,0.0
9,0.0
10,0.0
11,0.0
12,0.0
13,0.0
14,5.568947866086247
15,-3.375412491757619
16,2.9598936401454809
17,-1.787288534045615
18,5.867465429768674
2,1, 1, 1, 0,24,45.00,60.00,Tuesday
7,-1.7
8,0.0
9,0.0
10,0.0
11,0.0
12,0.0
13,0.0
14,5.528518229783438
15,-3.430013853912045
16,2.911264624527462
17,-1.8482863134254899
18,5.827155688230006
End of Data
 Number of Records Written=        1152
