Program Version,EnergyPlus, Version 9.5.0-de239b2e5f, YMD=2023.02.16 21:08
1,5,Environment Title[],Latitude[deg],Longitude[deg],Time Zone[],Elevation[m]
2,8,Day of Simulation[],Month[],Day of Month[],DST Indicator[1=yes 0=no],Hour[],StartMinute[],EndMinute[],DayType
3,5,Cumulative Day of Simulation[],Month[],Day of Month[],DST Indicator[1=yes 0=no],DayType  ! When Daily Report Variables Requested
4,2,Cumulative Days of Simulation[],Month[]  ! When Monthly Report Variables Requested
5,1,Cumulative Days of Simulation[] ! When Run Period Report Variables Requested
6,1,Calendar Year of Simulation[] ! When Annual Report Variables Requested
7,1,Environment,Site Outdoor Air Drybulb Temperature [C] !TimeStep
8,1,ZONE ONE,Zone Windows Total Transmitted Solar Radiation Rate [W] !TimeStep
9,1,ZN001:WALL001,Surface Outside Face Sunlit Fraction [] !TimeStep
10,1,ZN001:WALL001,Surface Outside Face Incident Solar Radiation Rate per Area [W/m2] !TimeStep
11,1,ZN001:WALL001:WIN001,Surface Outside Face Sunlit Fraction [] !TimeStep
12,1,ZN001:WALL001:WIN001,Surface Outside Face Incident Solar Radiation Rate per Area [W/m2] !TimeStep
13,1,ZN001:WALL001:WIN001,Surface Window Transmitted Solar Radiation Rate [W] !TimeStep
14,1,ZN001:WALL001,Surface Inside Face Temperature [C] !TimeStep
15,1,ZN001:WALL001,Surface Outside Face Temperature [C] !TimeStep
16,1,ZN001:WALL001:WIN001,Surface Inside Face Temperature [C] !TimeStep
17,1,ZN001:WALL001:WIN001,Surface Outside Face Temperature [C] !TimeStep
18,1,ZONE ONE,Zone Mean Air Temperature [C] !TimeStep
End of Data Dictionary
1,RUN PERIOD 1,  41.98, -87.92,  -6.00, 201.00
2,1, 1, 1, 0, 1, 0.00,15.00,Tuesday
7,-4.324999999999999
8,0.0
9,0.0
10,0.0
11,0.0
12,0.0
13,0.0
14,1.7781168053393688
15,-5.97158159495445
16,0.5112600141904977
17,-5.321936027937738
18,2.135847328983798
2,1, 1, 1, 0, 1,15.00,30.00,Tuesday
7,-6.949999999999999
8,0.0
9,0.0
10,0.0
11,0.0
12,0.0
13,0.0
14,1.6060909044914289
15,-8.4394748425144
16,-0.01926473053498512
17,-7.475916652717842
18,2.0546513812604596
2,1, 1, 1, 0, 1,30.00,45.00,Tuesday
7,-9.575
8,0.0
9,0.0
10,0.0
11,0.0
12,0.0
13,0.0
14,1.4140759863847437
15,-10.9157135033046
16,-0.5514331377758026
17,-9.636754005596629
18,1.9417768032721433
2,1, 1, 1, 0, 1,45.00,60.00,Tuesday
7,-12.2
8,0.0
9,0.0
10,0.0
11,0.0
12,0.0
13,0.0
14,1.2071622387520818
15,-13.398452749296612
16,-1.09752755701237
17,-11.805795887438649
18,1.80600578345577
2,1, 1, 1, 0, 2, 0.00,15.00,Tuesday
7,-12.075
8,0.0
9,0.0
10,0.0
11,0.0
12,0.0
13,0.0
14,1.154272056681677
15,-13.199995472622537
16,-1.1710289265118946
17,-11.655444914894247
18,1.6825922716819184
2,1, 1, 1, 0, 2,15.00,30.00,Tuesday
7,-11.95
8,0.0
9,0.0
10,0.0
11,0.0
12,0.0
13,0.0
14,1.0865240708057694
15,-13.022645227177638
16,-1.1990676858238203
17,-11.498679029160826
18,1.5890724389459308
2,1, 1, 1, 0, 2,30.00,45.00,Tuesday
7,-11.825
8,0.0
9,0.0
10,0.0
11,0.0
12,0.0
13,0.0
14,1.0349434316099842
15,-12.844124625423739
16,-1.2228595162096099
17,-11.341680247062869
18,1.521589058269633
2,1, 1, 1, 0, 2,45.00,60.00,Tuesday
7,-11.7
8,0.0
9,0.0
10,0.0
11,0.0
12,0.0
13,0.0
14,0.9943170644974357
15,-12.66566280528824
16,-1.234247386684956
17,-11.182630425477044
18,1.4701454009275048
2,1, 1, 1, 0, 3, 0.00,15.00,Tuesday
7,-11.549999999999999
8,0.0
9,0.0
10,0.0
11,0.0
12,0.0
13,0.0
14,0.9551750380342327
15,-12.541195725343016
16,-1.239864653223151
17,-11.053581908096249
18,1.4260485142149462
2,1, 1, 1, 0, 3,15.00,30.00,Tuesday
7,-11.399999999999999
8,0.0
9,0.0
10,0.0
11,0.0
12,0.0
13,0.0
14,0.9194338346854557
15,-12.418162303930228
16,-1.245879828893294
17,-10.91691909519841
18,1.3846787331692175
2,1, 1, 1, 0, 3,30.00,45.00,Tuesday
7,-11.25
8,0.0
9,0.0
10,0.0
11,0.0
12,0.0
13,0.0
14,0.8846960624786636
15,-12.29673697544737
16,-1.250265696667725
17,-10.779754460760842
18,1.3444929790548284
2,1, 1, 1, 0, 3,45.00,60.00,Tuesday
7,-11.1
8,0.0
9,0.0
10,0.0
11,0.0
12,0.0
13,0.0
14,0.850478283784112
15,-12.176981605024999
16,-1.2540078008559022
17,-10.642944536088919
18,1.305176337972507
2,1, 1, 1, 0, 4, 0.00,15.00,Tuesday
7,-11.1
8,0.0
9,0.0
10,0.0
11,0.0
12,0.0
13,0.0
14,0.8128321030522343
15,-12.146184361110452
16,-1.2930570618077582
17,-10.649711490100799
18,1.2660433436655117
2,1, 1, 1, 0, 4,15.00,30.00,Tuesday
7,-11.1
8,0.0
9,0.0
10,0.0
11,0.0
12,0.0
13,0.0
14,0.7756042804032075
15,-12.116576243354326
16,-1.3282429930744116
17,-10.66344322165287
18,1.2267929687975099
2,1, 1, 1, 0, 4,30.00,45.00,Tuesday
7,-11.1
8,0.0
9,0.0
10,0.0
11,0.0
12,0.0
13,0.0
14,0.7383042804454871
15,-12.088611264739333
16,-1.3629079966215159
17,-10.67724117982334
18,1.1874449400208825
2,1, 1, 1, 0, 4,45.00,60.00,Tuesday
7,-11.1
8,0.0
9,0.0
10,0.0
11,0.0
12,0.0
13,0.0
14,0.7009834260847614
15,-12.062156695106996
16,-1.3974387678410949
17,-10.690581220484433
18,1.1480996672376165
2,1, 1, 1, 0, 5, 0.00,15.00,Tuesday
7,-10.975
8,0.0
9,0.0
10,0.0
11,0.0
12,0.0
13,0.0
14,0.6692671713486466
15,-11.939883836796709
16,-1.404727734230164
17,-10.596960756399199
18,1.1097123570164139
2,1, 1, 1, 0, 5,15.00,30.00,Tuesday
7,-10.85
8,0.0
9,0.0
10,0.0
11,0.0
12,0.0
13,0.0
14,0.6377061440160154
15,-11.817710595094136
16,-1.4130092000593778
17,-10.495648068801757
18,1.0727140431220753
2,1, 1, 1, 0, 5,30.00,45.00,Tuesday
7,-10.725
8,0.0
9,0.0
10,0.0
11,0.0
12,0.0
13,0.0
14,0.6070317691217828
15,-11.69551842368183
16,-1.42097019725486
17,-10.393621720100441
18,1.0369433477837767
2,1, 1, 1, 0, 5,45.00,60.00,Tuesday
7,-10.6
8,0.0
9,0.0
10,0.0
11,0.0
12,0.0
13,0.0
14,0.5781022232011902
15,-11.573336603293799
16,-1.4282034098007444
17,-10.291428482419576
18,1.002208371936012
2,1, 1, 1, 0, 6, 0.00,15.00,Tuesday
7,-10.6
8,0.0
9,0.0
10,0.0
11,0.0
12,0.0
13,0.0
14,0.5399054875326894
15,-11.57413867947074
16,-1.4582457984806752
17,-10.291775744135748
18,0.9669398891435574
2,1, 1, 1, 0, 6,15.00,30.00,Tuesday
7,-10.6
8,0.0
9,0.0
10,0.0
11,0.0
12,0.0
13,0.0
14,0.5034450230359544
15,-11.574778901440825
16,-1.4903117231946226
17,-10.295933716200807
18,0.9303386802617566
2,1, 1, 1, 0, 6,30.00,45.00,Tuesday
7,-10.6
8,0.0
9,0.0
10,0.0
11,0.0
12,0.0
13,0.0
14,0.4663310660910945
15,-11.57550690669726
16,-1.5219682277938205
17,-10.300867870939328
18,0.8926320150772945
2,1, 1, 1, 0, 6,45.00,60.00,Tuesday
7,-10.6
8,0.0
9,0.0
10,0.0
11,0.0
12,0.0
13,0.0
14,0.4288669376433956
15,-11.576230448035887
16,-1.5539776336810292
17,-10.306162506095064
18,0.8543148613269728
2,1, 1, 1, 0, 7, 0.00,15.00,Tuesday
7,-10.6
8,0.0
9,0.0
10,0.0
11,0.0
12,0.0
13,0.0
14,0.3935791220986498
15,-11.550846004350717
16,-1.588795945875745
17,-10.31458504776765
18,0.816062496385466
2,1, 1, 1, 0, 7,15.00,30.00,Tuesday
7,-10.6
8,0.0
9,0.0
10,0.0
11,0.0
12,0.0
13,0.0
14,0.35810469747500009
15,-11.52677812443137
16,-1.621132412342945
17,-10.324515277922047
18,0.778306809873969
2,1, 1, 1, 0, 7,30.00,45.00,Tuesday
7,-10.6
8,0.0
9,0.0
10,0.0
11,0.0
12,0.0
13,0.0
14,0.32289034681550696
15,-11.50392824390313
16,-1.653198760497844
17,-10.334298291713253
18,0.7410663316917229
2,1, 1, 1, 0, 7,45.00,60.00,Tuesday
7,-10.6
8,0.0
9,0.0
10,0.0
11,0.0
12,0.0
13,0.0
14,0.28796614166436076
15,-11.482225002170618
16,-1.6849214835667113
17,-10.343713850756956
18,0.7042179684414197
2,1, 1, 1, 0, 8, 0.00,15.00,Tuesday
7,-10.45
8,0.0
9,0.0
10,0.0
11,0.0
12,0.0
13,0.0
14,0.2520491582615922
15,-11.434407646968824
16,-1.7034625542046343
17,-10.30299177172867
18,0.6672359933393663
2,1, 1, 1, 0, 8,15.00,30.00,Tuesday
7,-10.3
8,71.56792871975249
9,1.0
10,22.819555959623899
11,1.0
12,22.819555959623899
13,71.56792871975249
14,0.3205671056017011
15,-9.761641117710872
16,-1.2852397352930894
17,-9.90709116170467
18,0.6449297257148443
2,1, 1, 1, 0, 8,30.00,45.00,Tuesday
7,-10.15
8,354.0299290602728
9,1.0
10,109.75755355442667
11,1.0
12,109.75755355442667
13,354.0299290602728
14,0.6729928519951477
15,-3.4025149143382329
16,0.4653335494571138
17,-8.49174387081132
18,0.6770661878604288
2,1, 1, 1, 0, 8,45.00,60.00,Tuesday
7,-10.0
8,650.8026061160458
9,1.0
10,195.8764694434918
11,1.0
12,195.8764694434918
13,650.8026061160458
14,1.13732289458094
15,3.1134346098935219
16,2.2733876469155236
17,-7.1231426473544279
18,0.7693014098738092
2,1, 1, 1, 0, 9, 0.00,15.00,Tuesday
7,-9.725
8,953.3043628211269
9,1.0
10,278.97248314719988
11,1.0
12,278.97248314719988
13,953.3043628211269
14,1.4552383529435187
15,8.26632375126873
16,3.853613150088904
17,-5.942500719622103
18,0.9110823771506529
2,1, 1, 1, 0, 9,15.00,30.00,Tuesday
7,-9.45
8,1278.5481108613147
9,1.0
10,364.91995730569456
11,1.0
12,364.91995730569456
13,1278.5481108613147
14,1.829317012650164
15,13.351355547211229
16,5.4169805854764949
17,-4.783366084403951
18,1.0936975834012866
2,1, 1, 1, 0, 9,30.00,45.00,Tuesday
7,-9.175
8,1501.6689651177185
9,1.0
10,420.35879993239237
11,1.0
12,420.35879993239237
13,1501.6689651177185
14,2.081584696240138
15,16.110161414278925
16,6.441037211946082
17,-4.087036730846023
18,1.2972213805487698
2,1, 1, 1, 0, 9,45.00,60.00,Tuesday
7,-8.9
8,1735.1383193393602
9,1.0
10,478.00138373643099
11,1.0
12,478.00138373643099
13,1735.1383193393602
14,2.3810616893868867
15,19.10579887095909
16,7.470549038340323
17,-3.3598681711561086
18,1.5128503859526599
2,1, 1, 1, 0,10, 0.00,15.00,Tuesday
7,-8.350000000000002
8,1975.0591100537159
9,1.0
10,536.9185644770597
11,1.0
12,536.9185644770597
13,1975.0591100537159
14,2.6206990613253526
15,20.226117895232428
16,8.530796680937329
17,-2.5981164108376335
18,1.7456614925294723
2,1, 1, 1, 0,10,15.00,30.00,Tuesday
7,-7.800000000000001
8,2223.9470947223846
9,1.0
10,598.0969199229219
11,1.0
12,598.0969199229219
13,2223.9470947223846
14,2.8859695895760337
15,21.481290850115415
16,9.614029190524889
17,-1.8263313781178568
18,1.9934820105115637
2,1, 1, 1, 0,10,30.00,45.00,Tuesday
7,-7.25
8,2391.940481956653
9,1.0
10,637.6133352894237
11,1.0
12,637.6133352894237
13,2391.940481956653
14,3.0834004521086086
15,21.54291017706911
16,10.376766297447319
17,-1.3214267941827416
18,2.2418092967598248
2,1, 1, 1, 0,10,45.00,60.00,Tuesday
7,-6.7
8,2557.310342406259
9,1.0
10,676.6412284283772
11,1.0
12,676.6412284283772
13,2557.310342406259
14,3.29687470783194
15,21.704619102919169
16,11.11234288805474
17,-0.807881270316102
18,2.481871806267522
2,1, 1, 1, 0,11, 0.00,15.00,Tuesday
7,-6.275
8,2719.427216426026
9,1.0
10,715.0112779846514
11,1.0
12,715.0112779846514
13,2719.427216426026
14,3.586859552661519
15,23.80199186820112
16,11.873879354842757
17,-0.05160151020237436
18,2.717345957836309
2,1, 1, 1, 0,11,15.00,30.00,Tuesday
7,-5.85
8,2877.417086129279
9,1.0
10,752.5077794605232
11,1.0
12,752.5077794605232
13,2877.417086129279
14,3.8625722213249049
15,25.736797766223913
16,12.622209816073223
17,0.6800928897621361
18,2.9532074274715849
2,1, 1, 1, 0,11,30.00,45.00,Tuesday
7,-5.425
8,2835.5349808371727
9,1.0
10,742.5988714321785
11,1.0
12,742.5988714321785
13,2835.5349808371727
14,4.015177276841574
15,25.588513421694115
16,12.705483324278476
17,0.9616328609209859
18,3.17397570198646
2,1, 1, 1, 0,11,45.00,60.00,Tuesday
7,-5.0
8,2772.923910988253
9,1.0
10,727.8169025450712
11,1.0
12,727.8169025450712
13,2772.923910988253
14,4.163561831929999
15,25.35896027808046
16,12.693310197029632
17,1.2068014328874597
18,3.3689148142007929
2,1, 1, 1, 0,12, 0.00,15.00,Tuesday
7,-4.575
8,2664.822954671648
9,1.0
10,700.3759009170325
11,1.0
12,700.3759009170325
13,2664.822954671648
14,4.262317813240897
15,24.61605531601807
16,12.497546092814105
17,1.3768263660092544
18,3.5329980682908808
2,1, 1, 1, 0,12,15.00,30.00,Tuesday
7,-4.15
8,2580.894828475442
9,1.0
10,681.6705029034473
11,1.0
12,681.6705029034473
13,2580.894828475442
14,4.379418841460951
15,24.285305465573168
16,12.413995196243207
17,1.6309484126807093
18,3.673486939649449
2,1, 1, 1, 0,12,30.00,45.00,Tuesday
7,-3.7249999999999998
8,2259.3077124563117
9,1.0
10,602.01865277251
11,1.0
12,602.01865277251
13,2259.3077124563117
14,4.290093386130002
15,21.256774297708469
16,11.459901781535337
17,1.333220562015299
18,3.7727211049027469
2,1, 1, 1, 0,12,45.00,60.00,Tuesday
7,-3.3
8,1841.4287184027517
9,1.0
10,493.55004396206007
11,1.0
12,493.55004396206007
13,1841.4287184027517
14,4.104210439218414
15,17.077883970175447
16,9.991187057221964
17,0.7441643898044958
18,3.8137595164481428
2,1, 1, 1, 0,13, 0.00,15.00,Tuesday
7,-3.0249999999999996
8,1510.1870283450449
9,1.0
10,412.335026418112
11,1.0
12,412.335026418112
13,1510.1870283450449
14,3.9729121910215197
15,14.232838488191622
16,8.855165236937922
17,0.34685919948924495
18,3.8077784119771005
2,1, 1, 1, 0,13,15.00,30.00,Tuesday
7,-2.75
8,1097.5186598189753
9,1.0
10,305.94037763660148
11,1.0
12,305.94037763660148
13,1097.5186598189753
14,3.7209611203996264
15,10.058481644725174
16,7.278862424441286
17,-0.31918005234803106
18,3.7563833602336897
2,1, 1, 1, 0,13,30.00,45.00,Tuesday
7,-2.475
8,997.8347210574955
9,1.0
10,281.0763483922329
11,1.0
12,281.0763483922329
13,997.8347210574955
14,3.696678753943676
15,9.545851570025658
16,6.913999295038252
17,-0.22466678423063514
18,3.6933620081199249
2,1, 1, 1, 0,13,45.00,60.00,Tuesday
7,-2.2
8,900.1994191962868
9,1.0
10,256.7721209415886
11,1.0
12,256.7721209415886
13,900.1994191962868
14,3.6631843854117926
15,8.936470527248057
16,6.597474485671796
17,-0.10771803135190794
18,3.6415868867508776
2,1, 1, 1, 0,14, 0.00,15.00,Tuesday
7,-1.9250000000000003
8,732.8655907144981
9,1.0
10,210.73276284570657
11,1.0
12,210.73276284570657
13,732.8655907144981
14,3.557329078167437
15,7.3884918594715549
16,5.899803720618365
17,-0.25438985036942088
18,3.5964351127406606
2,1, 1, 1, 0,14,15.00,30.00,Tuesday
7,-1.6500000000000002
8,646.3774883140063
9,1.0
10,189.38488290342594
11,1.0
12,189.38488290342594
13,646.3774883140063
14,3.534478112930335
15,6.984246609836277
16,5.588110585201889
17,-0.16025092044196755
18,3.5578484248937509
2,1, 1, 1, 0,14,30.00,45.00,Tuesday
7,-1.375
8,617.9858986324632
9,1.0
10,179.3940297802914
11,1.0
12,179.3940297802914
13,617.9858986324632
14,3.5348368769802427
15,7.104373469786645
16,5.47567282804431
17,0.04831986475909389
18,3.527738189020366
2,1, 1, 1, 0,14,45.00,60.00,Tuesday
7,-1.1
8,588.6932238625436
9,1.0
10,169.43349014176136
11,1.0
12,169.43349014176136
13,588.6932238625436
14,3.5355852362133617
15,7.20189383607177
16,5.361708754904612
17,0.2553447568571414
18,3.5051546651226377
2,1, 1, 1, 0,15, 0.00,15.00,Tuesday
7,-1.1
8,618.6771475466255
9,1.0
10,178.15692317953907
11,1.0
12,178.15692317953907
13,618.6771475466255
14,3.5843377427091256
15,8.017207493862534
16,5.516919055452149
17,0.3966302985882635
18,3.4928623840748664
2,1, 1, 1, 0,15,15.00,30.00,Tuesday
7,-1.1
8,581.0506986351386
9,1.0
10,166.40516310952945
11,1.0
12,166.40516310952945
13,581.0506986351386
14,3.548792621445489
15,7.652930925915195
16,5.324726658365876
17,0.3060096153955101
18,3.4842951264876778
2,1, 1, 1, 0,15,30.00,45.00,Tuesday
7,-1.1
8,487.62380365139259
9,1.0
10,140.8967369711617
11,1.0
12,140.8967369711617
13,487.62380365139259
14,3.459789850339851
15,6.444739491166037
16,4.87116246627744
17,0.029010084760443534
18,3.466879837882029
2,1, 1, 1, 0,15,45.00,60.00,Tuesday
7,-1.1
8,399.16345704405486
9,1.0
10,116.57355796743004
11,1.0
12,116.57355796743004
13,399.16345704405486
14,3.3595578135527526
15,5.23018948867799
16,4.414769625413157
17,-0.2626924729603388
18,3.4346297394777025
2,1, 1, 1, 0,16, 0.00,15.00,Tuesday
7,-1.1
8,315.01856693619978
9,1.0
10,93.14939272689483
11,1.0
12,93.14939272689483
13,315.01856693619978
14,3.2767342476295839
15,4.17825191432055
16,3.9722666738236969
17,-0.49090084618728727
18,3.388452261274975
2,1, 1, 1, 0,16,15.00,30.00,Tuesday
7,-1.1
8,194.46754305814083
9,1.0
10,57.94047897402063
11,1.0
12,57.94047897402063
13,194.46754305814083
14,3.115003974839229
15,2.0478916426181934
16,3.24214064338787
17,-0.928392190791044
18,3.325260472093813
2,1, 1, 1, 0,16,30.00,45.00,Tuesday
7,-1.1
8,149.82451960460407
9,1.0
10,45.38251793443488
11,1.0
12,45.38251793443488
13,149.82451960460407
14,3.0549615147181798
15,1.4306754507341158
16,2.9477585378751884
17,-1.0618875617438449
18,3.253405004459218
2,1, 1, 1, 0,16,45.00,60.00,Tuesday
7,-1.1
8,104.00572991011612
9,1.0
10,32.02625108222755
11,1.0
12,32.02625108222755
13,104.00572991011612
14,2.963451571138615
15,0.5594543904054393
16,2.658666813861032
17,-1.2196676205002746
18,3.17923738215811
2,1, 1, 1, 0,17, 0.00,15.00,Tuesday
7,-1.1
8,56.8254897678188
9,1.0
10,17.762198626050539
11,1.0
12,17.762198626050539
13,56.8254897678188
14,2.8439251840355288
15,-0.7027548067567582
16,2.3145235664200074
17,-1.5173035964660358
18,3.0998847536578539
2,1, 1, 1, 0,17,15.00,30.00,Tuesday
7,-1.1
8,0.0
9,0.0
10,0.0
11,0.0
12,0.0
13,0.0
14,2.6768716478638217
15,-2.5447300022527248
16,1.8952115631274183
17,-1.8645175955568903
18,3.0046946377457215
2,1, 1, 1, 0,17,30.00,45.00,Tuesday
7,-1.1
8,0.0
9,0.0
10,0.0
11,0.0
12,0.0
13,0.0
14,2.6295695911989878
15,-2.6854871458828737
16,1.8018364665138052
17,-1.9284851332026847
18,2.909800704076261
2,1, 1, 1, 0,17,45.00,60.00,Tuesday
7,-1.1
8,0.0
9,0.0
10,0.0
11,0.0
12,0.0
13,0.0
14,2.5680366012754844
15,-2.885158902941867
16,1.7422558335110808
17,-2.001221141692554
18,2.829525140711359
2,1, 1, 1, 0,18, 0.00,15.00,Tuesday
7,-1.25
8,0.0
9,0.0
10,0.0
11,0.0
12,0.0
13,0.0
14,2.518107887684769
15,-3.0318783977103607
16,1.6649820373220337
17,-2.1460779322767395
18,2.766413611369665
2,1, 1, 1, 0,18,15.00,30.00,Tuesday
7,-1.4
8,0.0
9,0.0
10,0.0
11,0.0
12,0.0
13,0.0
14,2.4732643643352008
15,-3.1842173429138249
16,1.6004469304845657
17,-2.280265079454921
18,2.7164524994265286
2,1, 1, 1, 0,18,30.00,45.00,Tuesday
7,-1.5499999999999999
8,0.0
9,0.0
10,0.0
11,0.0
12,0.0
13,0.0
14,2.4329983768689975
15,-3.3359345871463739
16,1.5402759387815195
17,-2.414241632397534
18,2.6745903172602905
2,1, 1, 1, 0,18,45.00,60.00,Tuesday
7,-1.7
8,0.0
9,0.0
10,0.0
11,0.0
12,0.0
13,0.0
14,2.39621627078637
15,-3.487819675093603
16,1.4834793038754697
17,-2.547444915418396
18,2.637311837578254
2,1, 1, 1, 0,19, 0.00,15.00,Tuesday
7,-1.825
8,0.0
9,0.0
10,0.0
11,0.0
12,0.0
13,0.0
14,2.386039629676325
15,-3.3271618367939088
16,1.455484760377658
17,-2.5632252401088069
18,2.606303904286555
2,1, 1, 1, 0,19,15.00,30.00,Tuesday
7,-1.9500000000000002
8,0.0
9,0.0
10,0.0
11,0.0
12,0.0
13,0.0
14,2.375581396061839
15,-3.2493339163527357
16,1.4314103353375459
17,-2.603806002077249
18,2.5830342372311354
2,1, 1, 1, 0,19,30.00,45.00,Tuesday
7,-2.075
8,0.0
9,0.0
10,0.0
11,0.0
12,0.0
13,0.0
14,2.360097449830273
15,-3.3200972389787175
16,1.400132644830137
17,-2.692803377598352
18,2.5657311527067434
2,1, 1, 1, 0,19,45.00,60.00,Tuesday
7,-2.2
8,0.0
9,0.0
10,0.0
11,0.0
12,0.0
13,0.0
14,2.348005773805355
15,-3.2881445594252765
16,1.3782769669720665
17,-2.7502275831518547
18,2.55137820221388
2,1, 1, 1, 0,20, 0.00,15.00,Tuesday
7,-1.9250000000000003
8,0.0
9,0.0
10,0.0
11,0.0
12,0.0
13,0.0
14,2.3517620153625136
15,-2.9845132305251669
16,1.4247943162501998
17,-2.507937584404317
18,2.5397505552214225
2,1, 1, 1, 0,20,15.00,30.00,Tuesday
7,-1.6500000000000002
8,0.0
9,0.0
10,0.0
11,0.0
12,0.0
13,0.0
14,2.355983765644658
15,-2.6841303290672076
16,1.4727493866349733
17,-2.2599752754738917
18,2.5310352603653905
2,1, 1, 1, 0,20,30.00,45.00,Tuesday
7,-1.375
8,0.0
9,0.0
10,0.0
11,0.0
12,0.0
13,0.0
14,2.3616532673119496
15,-2.3851438802206377
16,1.5221072855549665
17,-2.0108875556582008
18,2.5248866386218609
2,1, 1, 1, 0,20,45.00,60.00,Tuesday
7,-1.1
8,0.0
9,0.0
10,0.0
11,0.0
12,0.0
13,0.0
14,2.3687111151651418
15,-2.0875228382769848
16,1.5730873734579519
17,-1.7607507004347554
18,2.5207428213555005
2,1, 1, 1, 0,21, 0.00,15.00,Tuesday
7,-1.25
8,0.0
9,0.0
10,0.0
11,0.0
12,0.0
13,0.0
14,2.3307627509434556
15,-2.378619365679085
16,1.5241588657225976
17,-1.9312513467653503
18,2.512343407546656
2,1, 1, 1, 0,21,15.00,30.00,Tuesday
7,-1.4
8,0.0
9,0.0
10,0.0
11,0.0
12,0.0
13,0.0
14,2.293688825652689
15,-2.600410293071044
16,1.4728377221041456
17,-2.081774508684987
18,2.494986838421726
2,1, 1, 1, 0,21,30.00,45.00,Tuesday
7,-1.5499999999999999
8,0.0
9,0.0
10,0.0
11,0.0
12,0.0
13,0.0
14,2.242520326289406
15,-2.9577818493088667
16,1.4077580486874695
17,-2.27456789764625
18,2.46716397358418
2,1, 1, 1, 0,21,45.00,60.00,Tuesday
7,-1.7
8,0.0
9,0.0
10,0.0
11,0.0
12,0.0
13,0.0
14,2.1860680673365135
15,-3.424524707209659
16,1.3285692516689097
17,-2.502380295725743
18,2.430505777145365
2,1, 1, 1, 0,22, 0.00,15.00,Tuesday
7,-1.5499999999999999
8,0.0
9,0.0
10,0.0
11,0.0
12,0.0
13,0.0
14,2.2028817083276857
15,-2.9193615867215128
16,1.347913345080201
17,-2.2743769411374616
18,2.3987060765643979
2,1, 1, 1, 0,22,15.00,30.00,Tuesday
7,-1.4
8,0.0
9,0.0
10,0.0
11,0.0
12,0.0
13,0.0
14,2.2114612698468334
15,-2.577199241044686
16,1.3853418197130055
17,-2.0843572073273437
18,2.379706593667357
2,1, 1, 1, 0,22,30.00,45.00,Tuesday
7,-1.25
8,0.0
9,0.0
10,0.0
11,0.0
12,0.0
13,0.0
14,2.21758604547327
15,-2.3517400463351985
16,1.4186921795264312
17,-1.9390709641220383
18,2.371824918059786
2,1, 1, 1, 0,22,45.00,60.00,Tuesday
7,-1.1
8,0.0
9,0.0
10,0.0
11,0.0
12,0.0
13,0.0
14,2.2275006364546225
15,-2.059546921857056
16,1.4568644583434889
17,-1.7473816679685115
18,2.370074704548637
2,1, 1, 1, 0,23, 0.00,15.00,Tuesday
7,-1.25
8,0.0
9,0.0
10,0.0
11,0.0
12,0.0
13,0.0
14,2.19016541324064
15,-2.3632292405408745
16,1.3876908019927897
17,-2.03786347047145
18,2.364594788545088
2,1, 1, 1, 0,23,15.00,30.00,Tuesday
7,-1.4
8,0.0
9,0.0
10,0.0
11,0.0
12,0.0
13,0.0
14,2.1557275653956649
15,-2.6677471285519616
16,1.303666267577455
17,-2.335920259704949
18,2.3498970524573767
2,1, 1, 1, 0,23,30.00,45.00,Tuesday
7,-1.5499999999999999
8,0.0
9,0.0
10,0.0
11,0.0
12,0.0
13,0.0
14,2.1155644780963205
15,-2.972899283025833
16,1.2187633374704206
17,-2.6338322148099566
18,2.326165936156202
2,1, 1, 1, 0,23,45.00,60.00,Tuesday
7,-1.7
8,0.0
9,0.0
10,0.0
11,0.0
12,0.0
13,0.0
14,2.0729290501504877
15,-3.278312499591862
16,1.1299289804227329
17,-2.9322036523686849
18,2.2958424196853515
2,1, 1, 1, 0,24, 0.00,15.00,Tuesday
7,-1.7
8,0.0
9,0.0
10,0.0
11,0.0
12,0.0
13,0.0
14,2.0479858535478905
15,-3.3320214779574277
16,1.0918169616043088
17,-2.990932502853468
18,2.2642336138153946
2,1, 1, 1, 0,24,15.00,30.00,Tuesday
7,-1.7
8,0.0
9,0.0
10,0.0
11,0.0
12,0.0
13,0.0
14,2.0199696070420116
15,-3.3865218045526395
16,1.0583484106513197
17,-3.050119870013134
18,2.2344481755130589
2,1, 1, 1, 0,24,30.00,45.00,Tuesday
7,-1.7
8,0.0
9,0.0
10,0.0
11,0.0
12,0.0
13,0.0
14,1.9926390564601673
15,-3.4408842401620167
16,1.024224793917142
17,-3.109558685846366
18,2.206782465647675
2,1, 1, 1, 0,24,45.00,60.00,Tuesday
7,-1.7
8,0.0
9,0.0
10,0.0
11,0.0
12,0.0
13,0.0
14,1.965911353650781
15,-3.4952463798662456
16,0.9907610315158308
17,-3.1688199326233645
18,2.1804737779180218
End of Data
 Number of Records Written=        1152
