Program Version,EnergyPlus, Version 9.5.0-de239b2e5f, YMD=2023.02.17 18:13
1,5,Environment Title[],Latitude[deg],Longitude[deg],Time Zone[],Elevation[m]
2,8,Day of Simulation[],Month[],Day of Month[],DST Indicator[1=yes 0=no],Hour[],StartMinute[],EndMinute[],DayType
3,5,Cumulative Day of Simulation[],Month[],Day of Month[],DST Indicator[1=yes 0=no],DayType  ! When Daily Report Variables Requested
4,2,Cumulative Days of Simulation[],Month[]  ! When Monthly Report Variables Requested
5,1,Cumulative Days of Simulation[] ! When Run Period Report Variables Requested
6,1,Calendar Year of Simulation[] ! When Annual Report Variables Requested
7,1,Environment,Site Outdoor Air Drybulb Temperature [C] !TimeStep
8,1,ZONE ONE,Zone Windows Total Transmitted Solar Radiation Rate [W] !TimeStep
9,1,ZN001:WALL001,Surface Outside Face Sunlit Fraction [] !TimeStep
10,1,ZN001:WALL001,Surface Outside Face Incident Solar Radiation Rate per Area [W/m2] !TimeStep
11,1,ZN001:WALL001:WIN001,Surface Outside Face Sunlit Fraction [] !TimeStep
12,1,ZN001:WALL001:WIN001,Surface Outside Face Incident Solar Radiation Rate per Area [W/m2] !TimeStep
13,1,ZN001:WALL001:WIN001,Surface Window Transmitted Solar Radiation Rate [W] !TimeStep
14,1,ZN001:WALL001,Surface Inside Face Temperature [C] !TimeStep
15,1,ZN001:WALL001,Surface Outside Face Temperature [C] !TimeStep
16,1,ZN001:WALL001:WIN001,Surface Inside Face Temperature [C] !TimeStep
17,1,ZN001:WALL001:WIN001,Surface Outside Face Temperature [C] !TimeStep
18,1,ZONE ONE,Zone Mean Air Temperature [C] !TimeStep
End of Data Dictionary
1,RUN PERIOD 1,  41.98, -87.92,  -6.00, 201.00
2,1, 1, 1, 0, 1, 0.00,15.00,Tuesday
7,-4.324999999999999
8,0.0
9,0.0
10,0.0
11,0.0
12,0.0
13,0.0
14,2.788306464690794
15,-5.953201583620685
16,0.36931745621632219
17,-4.429130301230089
18,3.160084369208637
2,1, 1, 1, 0, 1,15.00,30.00,Tuesday
7,-6.949999999999999
8,0.0
9,0.0
10,0.0
11,0.0
12,0.0
13,0.0
14,2.6078978805977237
15,-8.42106177235101
16,-0.4010836623680234
17,-6.398240804856016
18,3.0653326092979409
2,1, 1, 1, 0, 1,30.00,45.00,Tuesday
7,-9.575
8,0.0
9,0.0
10,0.0
11,0.0
12,0.0
13,0.0
14,2.404777464388022
15,-10.897331460479178
16,-1.1746572861547975
17,-8.373493857183007
18,2.9355448173125149
2,1, 1, 1, 0, 1,45.00,60.00,Tuesday
7,-12.2
8,0.0
9,0.0
10,0.0
11,0.0
12,0.0
13,0.0
14,2.1838663569539835
15,-13.380125946486095
16,-1.9623034034577814
17,-10.357305203085616
18,2.780886464891704
2,1, 1, 1, 0, 2, 0.00,15.00,Tuesday
7,-12.075
8,0.0
9,0.0
10,0.0
11,0.0
12,0.0
13,0.0
14,2.120720925042998
15,-13.18166208774444
16,-2.0024965181203244
17,-10.219127622313636
18,2.642089601247289
2,1, 1, 1, 0, 2,15.00,30.00,Tuesday
7,-11.95
8,0.0
9,0.0
10,0.0
11,0.0
12,0.0
13,0.0
14,2.042371955424867
15,-13.004531179125899
16,-2.0112244929787268
17,-10.098171625561804
18,2.537871218622631
2,1, 1, 1, 0, 2,30.00,45.00,Tuesday
7,-11.825
8,0.0
9,0.0
10,0.0
11,0.0
12,0.0
13,0.0
14,1.9824539900061189
15,-12.826112459475264
16,-2.022675161927168
17,-9.956975364757966
18,2.462661076010771
2,1, 1, 1, 0, 2,45.00,60.00,Tuesday
7,-11.7
8,0.0
9,0.0
10,0.0
11,0.0
12,0.0
13,0.0
14,1.9347618908560725
15,-12.647770063385448
16,-2.0132709724908866
17,-9.830584727380938
18,2.404788463001878
2,1, 1, 1, 0, 3, 0.00,15.00,Tuesday
7,-11.549999999999999
8,0.0
9,0.0
10,0.0
11,0.0
12,0.0
13,0.0
14,1.8890936730012469
15,-12.522934822837458
16,-1.998653918651769
17,-9.692274392645914
18,2.354634253720015
2,1, 1, 1, 0, 3,15.00,30.00,Tuesday
7,-11.399999999999999
8,0.0
9,0.0
10,0.0
11,0.0
12,0.0
13,0.0
14,1.8470244170479944
15,-12.399523893179664
16,-1.9825182786054257
17,-9.552875449488682
18,2.3073087345642175
2,1, 1, 1, 0, 3,30.00,45.00,Tuesday
7,-11.25
8,0.0
9,0.0
10,0.0
11,0.0
12,0.0
13,0.0
14,1.8060445113608142
15,-12.277703877824984
16,-1.9646417112604127
17,-9.41319187746194
18,2.2612635950589734
2,1, 1, 1, 0, 3,45.00,60.00,Tuesday
7,-11.1
8,0.0
9,0.0
10,0.0
11,0.0
12,0.0
13,0.0
14,1.7656842015896893
15,-12.157532994550973
16,-1.9461013539481087
17,-9.273721593259097
18,2.2162151668093559
2,1, 1, 1, 0, 4, 0.00,15.00,Tuesday
7,-11.1
8,0.0
9,0.0
10,0.0
11,0.0
12,0.0
13,0.0
14,1.7214467471728235
15,-12.127415328557895
16,-1.9988169615586458
17,-9.304323928034478
18,2.170954840351534
2,1, 1, 1, 0, 4,15.00,30.00,Tuesday
7,-11.1
8,0.0
9,0.0
10,0.0
11,0.0
12,0.0
13,0.0
14,1.6775742311130489
15,-12.098471793592218
16,-2.0440739399638234
17,-9.341843001530038
18,2.1250489510956629
2,1, 1, 1, 0, 4,30.00,45.00,Tuesday
7,-11.1
8,0.0
9,0.0
10,0.0
11,0.0
12,0.0
13,0.0
14,1.6334224421399766
15,-12.071143381939774
16,-2.088222807223019
17,-9.379376092545727
18,2.078675987004592
2,1, 1, 1, 0, 4,45.00,60.00,Tuesday
7,-11.1
8,0.0
9,0.0
10,0.0
11,0.0
12,0.0
13,0.0
14,1.5891212876433903
15,-12.045293555825682
16,-2.132057399022699
17,-9.416053770918893
18,2.0321268805028378
2,1, 1, 1, 0, 5, 0.00,15.00,Tuesday
7,-10.975
8,0.0
9,0.0
10,0.0
11,0.0
12,0.0
13,0.0
14,1.550683609626908
15,-11.923166311973003
16,-2.126603966753521
17,-9.336966388155418
18,1.9867967631327975
2,1, 1, 1, 0, 5,15.00,30.00,Tuesday
7,-10.85
8,0.0
9,0.0
10,0.0
11,0.0
12,0.0
13,0.0
14,1.5124965683375507
15,-11.801124163709135
16,-2.1239962856164427
17,-9.250195545260909
18,1.9432405163607634
2,1, 1, 1, 0, 5,30.00,45.00,Tuesday
7,-10.725
8,0.0
9,0.0
10,0.0
11,0.0
12,0.0
13,0.0
14,1.475398042072405
15,-11.679057939242782
16,-2.121284800658941
17,-9.162374237247946
18,1.9012046184973926
2,1, 1, 1, 0, 5,45.00,60.00,Tuesday
7,-10.6
8,0.0
9,0.0
10,0.0
11,0.0
12,0.0
13,0.0
14,1.4392107207957903
15,-11.557000711731173
16,-2.117811500071184
17,-9.074205195084972
18,1.8602598410567253
2,1, 1, 1, 0, 6, 0.00,15.00,Tuesday
7,-10.6
8,0.0
9,0.0
10,0.0
11,0.0
12,0.0
13,0.0
14,1.3957265933260109
15,-11.557882157783375
16,-2.1485052374811177
17,-9.07945196894309
18,1.818769602866401
2,1, 1, 1, 0, 6,15.00,30.00,Tuesday
7,-10.6
8,0.0
9,0.0
10,0.0
11,0.0
12,0.0
13,0.0
14,1.3528027554136724
15,-11.55868196896839
16,-2.185278960378355
17,-9.086127386578824
18,1.7757786133700955
2,1, 1, 1, 0, 6,30.00,45.00,Tuesday
7,-10.6
8,0.0
9,0.0
10,0.0
11,0.0
12,0.0
13,0.0
14,1.309330132078426
15,-11.559530332598774
16,-2.218397188629581
17,-9.095290830017234
18,1.7315711362423987
2,1, 1, 1, 0, 6,45.00,60.00,Tuesday
7,-10.6
8,0.0
9,0.0
10,0.0
11,0.0
12,0.0
13,0.0
14,1.2654736931298392
15,-11.560377057050442
16,-2.2516286782487215
17,-9.10503394289708
18,1.6867400641871722
2,1, 1, 1, 0, 7, 0.00,15.00,Tuesday
7,-10.6
8,0.0
9,0.0
10,0.0
11,0.0
12,0.0
13,0.0
14,1.22368296360466
15,-11.535525942461322
16,-2.294189729339678
17,-9.136179406063775
18,1.6419727701836074
2,1, 1, 1, 0, 7,15.00,30.00,Tuesday
7,-10.6
8,0.0
9,0.0
10,0.0
11,0.0
12,0.0
13,0.0
14,1.1817223233153474
15,-11.511965882073593
16,-2.334710261361579
17,-9.167495553529023
18,1.5976345918500666
2,1, 1, 1, 0, 7,30.00,45.00,Tuesday
7,-10.6
8,0.0
9,0.0
10,0.0
11,0.0
12,0.0
13,0.0
14,1.1400088024003823
15,-11.489600556194315
16,-2.374689565073197
17,-9.198086146925334
18,1.5537317528940163
2,1, 1, 1, 0, 7,45.00,60.00,Tuesday
7,-10.6
8,0.0
9,0.0
10,0.0
11,0.0
12,0.0
13,0.0
14,1.0985659523150158
15,-11.468359183693068
16,-2.414126185282953
17,-9.22776735532932
18,1.5101682075361625
2,1, 1, 1, 0, 8, 0.00,15.00,Tuesday
7,-10.45
8,0.0
9,0.0
10,0.0
11,0.0
12,0.0
13,0.0
14,1.0565270936299383
15,-11.420307606876529
16,-2.4154691274555946
17,-9.19052563800551
18,1.4667939118114993
2,1, 1, 1, 0, 8,15.00,30.00,Tuesday
7,-10.3
8,108.40371609626598
9,1.0
10,22.819555959623899
11,1.0
12,22.819555959623899
13,108.40371609626598
14,1.1275878568070086
15,-9.747181236455264
16,-2.0128458640855344
17,-8.768430891418007
18,1.4402979311614726
2,1, 1, 1, 0, 8,30.00,45.00,Tuesday
7,-10.15
8,533.1337584535826
9,1.0
10,109.75755355442667
11,1.0
12,109.75755355442667
13,533.1337584535826
14,1.507745573420142
15,-3.3845177628300768
16,-0.38419249533910718
17,-7.34796663318059
18,1.476726026310304
2,1, 1, 1, 0, 8,45.00,60.00,Tuesday
7,-10.0
8,972.3709587741021
9,1.0
10,195.8764694434918
11,1.0
12,195.8764694434918
13,972.3709587741021
14,1.9921685336925155
15,3.1082533654802497
16,1.349833778765742
17,-5.927243080295511
18,1.5815933545073034
2,1, 1, 1, 0, 9, 0.00,15.00,Tuesday
7,-9.725
8,1413.101027025902
9,1.0
10,278.97248314719988
11,1.0
12,278.97248314719988
13,1413.101027025902
14,2.3576623730028007
15,8.283521226151413
16,3.0117936374701346
17,-4.686907874717463
18,1.7353959784121185
2,1, 1, 1, 0, 9,15.00,30.00,Tuesday
7,-9.45
8,1880.9540982906956
9,1.0
10,364.91995730569456
11,1.0
12,364.91995730569456
13,1880.9540982906956
14,2.759043705593169
15,13.365134067857066
16,4.59713973426409
17,-3.4816770873842417
18,1.9306146416129016
2,1, 1, 1, 0, 9,30.00,45.00,Tuesday
7,-9.175
8,2195.017653741399
9,1.0
10,420.35879993239237
11,1.0
12,420.35879993239237
13,2195.017653741399
14,3.038320964896445
15,16.124166754116119
16,5.615869448149624
17,-2.7443022580868048
18,2.1475331806047368
2,1, 1, 1, 0, 9,45.00,60.00,Tuesday
7,-8.9
8,2522.7339307777626
9,1.0
10,478.00138373643099
11,1.0
12,478.00138373643099
13,2522.7339307777626
14,3.36622180386796
15,19.119693373537598
16,6.643773376085676
17,-1.9902211175182175
18,2.3766010078008965
2,1, 1, 1, 0,10, 0.00,15.00,Tuesday
7,-8.350000000000002
8,2859.0825306744966
9,1.0
10,536.9185644770597
11,1.0
12,536.9185644770597
13,2859.0825306744966
14,3.6368563520376488
15,20.23932528168133
16,7.676318022345242
17,-1.2684090859898448
18,2.6188001211105624
2,1, 1, 1, 0,10,15.00,30.00,Tuesday
7,-7.800000000000001
8,3208.4255696711909
9,1.0
10,598.0969199229219
11,1.0
12,598.0969199229219
13,3208.4255696711909
14,3.9332594818207196
15,21.493828870904076
16,8.726984663277165
17,-0.5474140412961219
18,2.882254710636067
2,1, 1, 1, 0,10,30.00,45.00,Tuesday
7,-7.25
8,3441.759924212147
9,1.0
10,637.6133352894237
11,1.0
12,637.6133352894237
13,3441.759924212147
14,4.160033335963205
15,21.554994688768234
16,9.45183021971468
17,-0.07730280677731116
18,3.15257298221911
2,1, 1, 1, 0,10,45.00,60.00,Tuesday
7,-6.7
8,3672.285095472995
9,1.0
10,676.6412284283772
11,1.0
12,676.6412284283772
13,3672.285095472995
14,4.407409649417743
15,21.716335277431118
16,10.154644880051024
17,0.390165038785085
18,3.4183452515051138
2,1, 1, 1, 0,11, 0.00,15.00,Tuesday
7,-6.275
8,3898.976605856272
9,1.0
10,715.0112779846514
11,1.0
12,715.0112779846514
13,3898.976605856272
14,4.731918910827972
15,23.813938284690214
16,10.937105222591754
17,1.1384335528209704
18,3.6826492895920137
2,1, 1, 1, 0,11,15.00,30.00,Tuesday
7,-5.85
8,4120.418695281419
9,1.0
10,752.5077794605232
11,1.0
12,752.5077794605232
13,4120.418695281419
14,5.044053170235435
15,25.74907648848594
16,11.705225200605185
17,1.8671740595972324
18,3.9502442287509904
2,1, 1, 1, 0,11,30.00,45.00,Tuesday
7,-5.425
8,4061.3349039878405
9,1.0
10,742.5988714321785
11,1.0
12,742.5988714321785
13,4061.3349039878405
14,5.225609272558278
15,25.601034773761634
16,11.832725898936758
17,2.130073168974093
18,4.204024986263936
2,1, 1, 1, 0,11,45.00,60.00,Tuesday
7,-5.0
8,3973.318600181463
9,1.0
10,727.8169025450712
11,1.0
12,727.8169025450712
13,3973.318600181463
14,5.402888033874298
15,25.37182791422098
16,11.873588329155496
17,2.3548133892875855
18,4.431613233111066
2,1, 1, 1, 0,12, 0.00,15.00,Tuesday
7,-4.575
8,3819.366570563894
9,1.0
10,700.3759009170325
11,1.0
12,700.3759009170325
13,3819.366570563894
14,5.5252763279769729
15,24.62922264822807
16,11.74416817273459
17,2.4957809288873706
18,4.6264551781609459
2,1, 1, 1, 0,12,15.00,30.00,Tuesday
7,-4.15
8,3702.7452501117716
9,1.0
10,681.6705029034473
11,1.0
12,681.6705029034473
13,3702.7452501117716
14,5.668269727957815
15,24.298746002221049
16,11.727829551586524
17,2.726783878070364
18,4.796336979190131
2,1, 1, 1, 0,12,30.00,45.00,Tuesday
7,-3.7249999999999998
8,3247.235519661027
9,1.0
10,602.01865277251
11,1.0
12,602.01865277251
13,3247.235519661027
14,5.585521472174864
15,21.270436245784276
16,10.868604888108792
17,2.376394547794007
18,4.920559372548606
2,1, 1, 1, 0,12,45.00,60.00,Tuesday
7,-3.3
8,2649.842220663087
9,1.0
10,493.55004396206007
11,1.0
12,493.55004396206007
13,2649.842220663087
14,5.400800301807611
15,17.091916768933907
16,9.50652986603518
17,1.7114383476431386
18,4.976741637330463
2,1, 1, 1, 0,13, 0.00,15.00,Tuesday
7,-3.0249999999999996
8,2181.646900212445
9,1.0
10,412.335026418112
11,1.0
12,412.335026418112
13,2181.646900212445
14,5.269250878555218
15,14.247290569385927
16,8.468093089139757
17,1.2638261417617969
18,4.978936444853443
2,1, 1, 1, 0,13,15.00,30.00,Tuesday
7,-2.75
8,1592.5266577004155
9,1.0
10,305.94037763660148
11,1.0
12,305.94037763660148
13,1592.5266577004155
14,4.987652611660483
15,10.073987937191602
16,6.993359946560304
17,0.5245220519908003
18,4.936083196780228
2,1, 1, 1, 0,13,30.00,45.00,Tuesday
7,-2.475
8,1451.1649141380659
9,1.0
10,281.0763483922329
11,1.0
12,281.0763483922329
13,1451.1649141380659
14,4.968194260193358
15,9.560861390586343
16,6.687248936358628
17,0.5895887503721724
18,4.882021282982134
2,1, 1, 1, 0,13,45.00,60.00,Tuesday
7,-2.2
8,1312.7592709094116
9,1.0
10,256.7721209415886
11,1.0
12,256.7721209415886
13,1312.7592709094116
14,4.936405124732006
15,8.953765608347583
16,6.439019689489896
17,0.6790900266737481
18,4.835977372130425
2,1, 1, 1, 0,14, 0.00,15.00,Tuesday
7,-1.9250000000000003
8,1070.6457842180467
9,1.0
10,210.73276284570657
11,1.0
12,210.73276284570657
13,1070.6457842180467
14,4.817757996024831
15,7.405747831400639
16,5.810411529635303
17,0.4984383755336239
18,4.79480141204306
2,1, 1, 1, 0,14,15.00,30.00,Tuesday
7,-1.6500000000000002
8,948.2485746018327
9,1.0
10,189.38488290342594
11,1.0
12,189.38488290342594
13,948.2485746018327
14,4.789232180553585
15,6.999099896158989
16,5.559463744889399
17,0.573813548235421
18,4.75858085730467
2,1, 1, 1, 0,14,30.00,45.00,Tuesday
7,-1.375
8,904.8253795647224
9,1.0
10,179.3940297802914
11,1.0
12,179.3940297802914
13,904.8253795647224
14,4.788572089074458
15,7.120805663887538
16,5.503068076084787
17,0.7715385845210676
18,4.72981019669023
2,1, 1, 1, 0,14,45.00,60.00,Tuesday
7,-1.1
8,860.5056534724099
9,1.0
10,169.43349014176136
11,1.0
12,169.43349014176136
13,860.5056534724099
14,4.784599852460575
15,7.218670946415153
16,5.443811832739129
17,0.9665502275025801
18,4.708396118110201
2,1, 1, 1, 0,15, 0.00,15.00,Tuesday
7,-1.1
8,904.7650604994558
9,1.0
10,178.15692317953907
11,1.0
12,178.15692317953907
13,904.7650604994558
14,4.838060807655841
15,8.034003565804552
16,5.612703070959071
17,1.1312906867485709
18,4.697073330558254
2,1, 1, 1, 0,15,15.00,30.00,Tuesday
7,-1.1
8,849.3236181208366
9,1.0
10,166.40516310952945
11,1.0
12,166.40516310952945
13,849.3236181208366
14,4.795149606781258
15,7.6711353632908569
16,5.4359423525365859
17,1.0456842725961906
18,4.689717021847548
2,1, 1, 1, 0,15,30.00,45.00,Tuesday
7,-1.1
8,714.7046675380757
9,1.0
10,140.8967369711617
11,1.0
12,140.8967369711617
13,714.7046675380757
14,4.693199976263328
15,6.463945812609242
16,4.985835769082655
17,0.7561892158089449
18,4.675810277939046
2,1, 1, 1, 0,15,45.00,60.00,Tuesday
7,-1.1
8,586.9655212300743
9,1.0
10,116.57355796743004
11,1.0
12,116.57355796743004
13,586.9655212300743
14,4.587611362784116
15,5.251133531733676
16,4.5108787516159059
17,0.4539736799331422
18,4.646716138461906
2,1, 1, 1, 0,16, 0.00,15.00,Tuesday
7,-1.1
8,464.95417916439495
9,1.0
10,93.14939272689483
11,1.0
12,93.14939272689483
13,464.95417916439495
14,4.492167923947567
15,4.198028698743889
16,4.09648923396071
17,0.23568205450305869
18,4.6020210306327808
2,1, 1, 1, 0,16,15.00,30.00,Tuesday
7,-1.1
8,288.0276650551215
9,1.0
10,57.94047897402063
11,1.0
12,57.94047897402063
13,288.0276650551215
14,4.316841424156011
15,2.0699422478797087
16,3.4557259255865349
17,-0.1863215291311917
18,4.535473753639313
2,1, 1, 1, 0,16,30.00,45.00,Tuesday
7,-1.1
8,222.91249157722326
9,1.0
10,45.38251793443488
11,1.0
12,45.38251793443488
13,222.91249157722326
14,4.252232605106694
15,1.455092848894652
16,3.2139584411030457
17,-0.292874091599856
18,4.456227577511428
2,1, 1, 1, 0,16,45.00,60.00,Tuesday
7,-1.1
8,155.3816171753998
9,1.0
10,32.02625108222755
11,1.0
12,32.02625108222755
13,155.3816171753998
14,4.151881304364108
15,0.5860356127153263
16,2.968032319293286
17,-0.4152650256315269
18,4.372100387090802
2,1, 1, 1, 0,17, 0.00,15.00,Tuesday
7,-1.1
8,85.15688895490742
9,1.0
10,17.762198626050539
11,1.0
12,17.762198626050539
13,85.15688895490742
14,4.021972989783315
15,-0.6731013481258706
16,2.6500811752489996
17,-0.6575500765812876
18,4.283462399799285
2,1, 1, 1, 0,17,15.00,30.00,Tuesday
7,-1.1
8,0.0
9,0.0
10,0.0
11,0.0
12,0.0
13,0.0
14,3.842560483561545
15,-2.5138761839569137
16,2.2387652847730807
17,-1.0197035822619683
18,4.182519066685637
2,1, 1, 1, 0,17,30.00,45.00,Tuesday
7,-1.1
8,0.0
9,0.0
10,0.0
11,0.0
12,0.0
13,0.0
14,3.7916258173679768
15,-2.6530214228090438
16,2.160956792297611
17,-1.0465236577281303
18,4.084506252201068
2,1, 1, 1, 0,17,45.00,60.00,Tuesday
7,-1.1
8,0.0
9,0.0
10,0.0
11,0.0
12,0.0
13,0.0
14,3.7261162849025037
15,-2.85021035677025
16,2.11773492306736
17,-1.0565133440615
18,4.002634591560306
2,1, 1, 1, 0,18, 0.00,15.00,Tuesday
7,-1.25
8,0.0
9,0.0
10,0.0
11,0.0
12,0.0
13,0.0
14,3.6722725692916868
15,-2.997242951262618
16,2.02678055897195
17,-1.184923228099592
18,3.93794556962729
2,1, 1, 1, 0,18,15.00,30.00,Tuesday
7,-1.4
8,0.0
9,0.0
10,0.0
11,0.0
12,0.0
13,0.0
14,3.623574269093989
15,-3.149639880656155
16,1.9506687768397342
17,-1.3064032087870033
18,3.88563255066968
2,1, 1, 1, 0,18,30.00,45.00,Tuesday
7,-1.5499999999999999
8,0.0
9,0.0
10,0.0
11,0.0
12,0.0
13,0.0
14,3.579168058949769
15,-3.3014705089882074
16,1.8786975540018034
17,-1.4266579764656627
18,3.8405057257912347
2,1, 1, 1, 0,18,45.00,60.00,Tuesday
7,-1.7
8,0.0
9,0.0
10,0.0
11,0.0
12,0.0
13,0.0
14,3.5369464295285146
15,-3.4534754085003676
16,1.8095127043362709
17,-1.546027349863948
18,3.799110121218365
2,1, 1, 1, 0,19, 0.00,15.00,Tuesday
7,-1.825
8,0.0
9,0.0
10,0.0
11,0.0
12,0.0
13,0.0
14,3.5213362962510708
15,-3.2967182718797356
16,1.7426483329101075
17,-1.6574075507245425
18,3.7631184722230537
2,1, 1, 1, 0,19,15.00,30.00,Tuesday
7,-1.9500000000000002
8,0.0
9,0.0
10,0.0
11,0.0
12,0.0
13,0.0
14,3.5049681693415728
15,-3.222441520954575
16,1.685071961874712
17,-1.7680327017317837
18,3.7341948849767769
2,1, 1, 1, 0,19,30.00,45.00,Tuesday
7,-2.075
8,0.0
9,0.0
10,0.0
11,0.0
12,0.0
13,0.0
14,3.483503690157376
15,-3.294221379981434
16,1.6359828086663129
17,-1.8688506048927707
18,3.710868469147512
2,1, 1, 1, 0,19,45.00,60.00,Tuesday
7,-2.2
8,0.0
9,0.0
10,0.0
11,0.0
12,0.0
13,0.0
14,3.4650996764945156
15,-3.2653698486936477
16,1.5815532218357476
17,-1.9811202785664364
18,3.6901017560950026
2,1, 1, 1, 0,20, 0.00,15.00,Tuesday
7,-1.9250000000000003
8,0.0
9,0.0
10,0.0
11,0.0
12,0.0
13,0.0
14,3.4638594235910458
15,-2.9625511450012937
16,1.656008206131446
17,-1.7950922666362886
18,3.672590926681619
2,1, 1, 1, 0,20,15.00,30.00,Tuesday
7,-1.6500000000000002
8,0.0
9,0.0
10,0.0
11,0.0
12,0.0
13,0.0
14,3.462700008172166
15,-2.662898558191446
16,1.71894369623908
17,-1.5787332001257255
18,3.658721451345923
2,1, 1, 1, 0,20,30.00,45.00,Tuesday
7,-1.375
8,0.0
9,0.0
10,0.0
11,0.0
12,0.0
13,0.0
14,3.463420412373583
15,-2.3645861006003558
16,1.7885241795280536
17,-1.3668218666422832
18,3.648003797708618
2,1, 1, 1, 0,20,45.00,60.00,Tuesday
7,-1.1
8,0.0
9,0.0
10,0.0
11,0.0
12,0.0
13,0.0
14,3.466611912636215
15,-2.0676038005043986
16,1.860774059372261
17,-1.1524314747379663
18,3.6397593871322595
2,1, 1, 1, 0,21, 0.00,15.00,Tuesday
7,-1.25
8,0.0
9,0.0
10,0.0
11,0.0
12,0.0
13,0.0
14,3.423729678920565
15,-2.3556373459148749
16,1.8100891764698304
17,-1.248290238754521
18,3.6269742431204419
2,1, 1, 1, 0,21,15.00,30.00,Tuesday
7,-1.4
8,0.0
9,0.0
10,0.0
11,0.0
12,0.0
13,0.0
14,3.3827267322907996
15,-2.575767860938026
16,1.7522292697004787
17,-1.3545257125549029
18,3.6046982288244835
2,1, 1, 1, 0,21,30.00,45.00,Tuesday
7,-1.5499999999999999
8,0.0
9,0.0
10,0.0
11,0.0
12,0.0
13,0.0
14,3.3277467716412647
15,-2.9291204728129438
16,1.6955247115241719
17,-1.4539298040607492
18,3.571845762745465
2,1, 1, 1, 0,21,45.00,60.00,Tuesday
7,-1.7
8,0.0
9,0.0
10,0.0
11,0.0
12,0.0
13,0.0
14,3.2675488307119515
15,-3.391318054055636
16,1.637199730958855
17,-1.5425714391516295
18,3.530550934138703
2,1, 1, 1, 0,22, 0.00,15.00,Tuesday
7,-1.5499999999999999
8,0.0
9,0.0
10,0.0
11,0.0
12,0.0
13,0.0
14,3.2797579007774098
15,-2.8916165892037979
16,1.637208656384587
17,-1.4772279873554908
18,3.4944967881211306
2,1, 1, 1, 0,22,15.00,30.00,Tuesday
7,-1.4
8,0.0
9,0.0
10,0.0
11,0.0
12,0.0
13,0.0
14,3.282772710144302
15,-2.553274978749959
16,1.6661767685743599
17,-1.3825969940106689
18,3.4713689747656368
2,1, 1, 1, 0,22,30.00,45.00,Tuesday
7,-1.25
8,0.0
9,0.0
10,0.0
11,0.0
12,0.0
13,0.0
14,3.2836960751693824
15,-2.32951953199186
16,1.7001434534512328
17,-1.2776675843560384
18,3.459262489359785
2,1, 1, 1, 0,22,45.00,60.00,Tuesday
7,-1.1
8,0.0
9,0.0
10,0.0
11,0.0
12,0.0
13,0.0
14,3.2885043663028079
15,-2.0403576112383585
16,1.7381493165028133
17,-1.166221997192281
18,3.4531031946733017
2,1, 1, 1, 0,23, 0.00,15.00,Tuesday
7,-1.25
8,0.0
9,0.0
10,0.0
11,0.0
12,0.0
13,0.0
14,3.2452326728917426
15,-2.3439824369078345
16,1.6270427909289538
17,-1.4221137572288286
18,3.4421669611830145
2,1, 1, 1, 0,23,15.00,30.00,Tuesday
7,-1.4
8,0.0
9,0.0
10,0.0
11,0.0
12,0.0
13,0.0
14,3.204998464868622
15,-2.6485263227612676
16,1.5065176322559069
17,-1.6995087675206265
18,3.4208580604801517
2,1, 1, 1, 0,23,30.00,45.00,Tuesday
7,-1.5499999999999999
8,0.0
9,0.0
10,0.0
11,0.0
12,0.0
13,0.0
14,3.1603849455543218
15,-2.9537384677173628
16,1.3858005724745227
17,-1.975650462482065
18,3.389994236036348
2,1, 1, 1, 0,23,45.00,60.00,Tuesday
7,-1.7
8,0.0
9,0.0
10,0.0
11,0.0
12,0.0
13,0.0
14,3.1118539477761368
15,-3.2592960117452489
16,1.261712626967494
17,-2.2527235832254179
18,3.3524834614734626
2,1, 1, 1, 0,24, 0.00,15.00,Tuesday
7,-1.7
8,0.0
9,0.0
10,0.0
11,0.0
12,0.0
13,0.0
14,3.0813327832827985
15,-3.3131439031049187
16,1.2167077653191428
17,-2.3140364287221475
18,3.3142376692208588
2,1, 1, 1, 0,24,15.00,30.00,Tuesday
7,-1.7
8,0.0
9,0.0
10,0.0
11,0.0
12,0.0
13,0.0
14,3.047683195030417
15,-3.3677441267889929
16,1.174771177832156
17,-2.372579679566229
18,3.278448476946147
2,1, 1, 1, 0,24,30.00,45.00,Tuesday
7,-1.7
8,0.0
9,0.0
10,0.0
11,0.0
12,0.0
13,0.0
14,3.014989979738953
15,-3.4221938668372986
16,1.1323617763907806
17,-2.431149060807684
18,3.245194001761325
2,1, 1, 1, 0,24,45.00,60.00,Tuesday
7,-1.7
8,0.0
9,0.0
10,0.0
11,0.0
12,0.0
13,0.0
14,2.9830542388342495
15,-3.476644908226966
16,1.0907339960827472
17,-2.489368604560241
18,3.2134870100419454
End of Data
 Number of Records Written=        1152
