Program Version,EnergyPlus, Version 9.5.0-de239b2e5f, YMD=2023.02.16 21:08
1,5,Environment Title[],Latitude[deg],Longitude[deg],Time Zone[],Elevation[m]
2,8,Day of Simulation[],Month[],Day of Month[],DST Indicator[1=yes 0=no],Hour[],StartMinute[],EndMinute[],DayType
3,5,Cumulative Day of Simulation[],Month[],Day of Month[],DST Indicator[1=yes 0=no],DayType  ! When Daily Report Variables Requested
4,2,Cumulative Days of Simulation[],Month[]  ! When Monthly Report Variables Requested
5,1,Cumulative Days of Simulation[] ! When Run Period Report Variables Requested
6,1,Calendar Year of Simulation[] ! When Annual Report Variables Requested
7,1,Environment,Site Outdoor Air Drybulb Temperature [C] !TimeStep
8,1,ZONE ONE,Zone Windows Total Transmitted Solar Radiation Rate [W] !TimeStep
9,1,ZN001:WALL001,Surface Outside Face Sunlit Fraction [] !TimeStep
10,1,ZN001:WALL001,Surface Outside Face Incident Solar Radiation Rate per Area [W/m2] !TimeStep
11,1,ZN001:WALL001:WIN001,Surface Outside Face Sunlit Fraction [] !TimeStep
12,1,ZN001:WALL001:WIN001,Surface Outside Face Incident Solar Radiation Rate per Area [W/m2] !TimeStep
13,1,ZN001:WALL001:WIN001,Surface Window Transmitted Solar Radiation Rate [W] !TimeStep
14,1,ZN001:WALL001,Surface Inside Face Temperature [C] !TimeStep
15,1,ZN001:WALL001,Surface Outside Face Temperature [C] !TimeStep
16,1,ZN001:WALL001:WIN001,Surface Inside Face Temperature [C] !TimeStep
17,1,ZN001:WALL001:WIN001,Surface Outside Face Temperature [C] !TimeStep
18,1,ZONE ONE,Zone Mean Air Temperature [C] !TimeStep
End of Data Dictionary
1,RUN PERIOD 1,  41.98, -87.92,  -6.00, 201.00
2,1, 1, 1, 0, 1, 0.00,15.00,Tuesday
7,-4.324999999999999
8,0.0
9,0.0
10,0.0
11,0.0
12,0.0
13,0.0
14,1.0257125420432308
15,-5.985421752615064
16,-0.9551697926678457
17,-4.8203890377225779
18,1.3526100566767594
2,1, 1, 1, 0, 1,15.00,30.00,Tuesday
7,-6.949999999999999
8,0.0
9,0.0
10,0.0
11,0.0
12,0.0
13,0.0
14,0.8484731625554554
15,-8.453401471182
16,-1.7329192761733339
17,-6.78952274535942
18,1.2642017969502147
2,1, 1, 1, 0, 1,30.00,45.00,Tuesday
7,-9.575
8,0.0
9,0.0
10,0.0
11,0.0
12,0.0
13,0.0
14,0.6475595915325069
15,-10.930042850049169
16,-2.5118262503142434
17,-8.764957413583659
18,1.1399795938573445
2,1, 1, 1, 0, 1,45.00,60.00,Tuesday
7,-12.2
8,0.0
9,0.0
10,0.0
11,0.0
12,0.0
13,0.0
14,0.4309790193562373
15,-13.413139686088704
16,-3.3043095265066997
17,-10.749294147934393
18,0.9900344173127841
2,1, 1, 1, 0, 2, 0.00,15.00,Tuesday
7,-12.075
8,0.0
9,0.0
10,0.0
11,0.0
12,0.0
13,0.0
14,0.3735822799507618
15,-13.214987322762778
16,-3.3411509183212049
17,-10.614946935802834
18,0.8551576703606107
2,1, 1, 1, 0, 2,15.00,30.00,Tuesday
7,-11.95
8,0.0
9,0.0
10,0.0
11,0.0
12,0.0
13,0.0
14,0.3005858744121952
15,-13.037744629667129
16,-3.3446007230796797
17,-10.492152992428374
18,0.7545645511524263
2,1, 1, 1, 0, 2,30.00,45.00,Tuesday
7,-11.825
8,0.0
9,0.0
10,0.0
11,0.0
12,0.0
13,0.0
14,0.24591379959318966
15,-12.859201625496544
16,-3.3463006897097786
17,-10.35975308439754
18,0.6833338768296909
2,1, 1, 1, 0, 2,45.00,60.00,Tuesday
7,-11.7
8,0.0
9,0.0
10,0.0
11,0.0
12,0.0
13,0.0
14,0.20345821750325117
15,-12.680721646051298
16,-3.335985702209996
17,-10.222390027721929
18,0.6299420741179042
2,1, 1, 1, 0, 3, 0.00,15.00,Tuesday
7,-11.549999999999999
8,0.0
9,0.0
10,0.0
11,0.0
12,0.0
13,0.0
14,0.16305181542615289
15,-12.556667985803145
16,-3.3195212173482675
17,-10.086973085567934
18,0.5846955009393009
2,1, 1, 1, 0, 3,15.00,30.00,Tuesday
7,-11.399999999999999
8,0.0
9,0.0
10,0.0
11,0.0
12,0.0
13,0.0
14,0.12638291566961058
15,-12.434070328101438
16,-3.300670814011312
17,-9.951803328422443
18,0.5425689255369232
2,1, 1, 1, 0, 3,30.00,45.00,Tuesday
7,-11.25
8,0.0
9,0.0
10,0.0
11,0.0
12,0.0
13,0.0
14,0.09089193454124861
15,-12.313103514648797
16,-3.2799210267341438
17,-9.816582242480309
18,0.5018900047735444
2,1, 1, 1, 0, 3,45.00,60.00,Tuesday
7,-11.1
8,0.0
9,0.0
10,0.0
11,0.0
12,0.0
13,0.0
14,0.05605777543888854
15,-12.193827949831136
16,-3.258479413247642
17,-9.681683392719038
18,0.4622924435749387
2,1, 1, 1, 0, 4, 0.00,15.00,Tuesday
7,-11.1
8,0.0
9,0.0
10,0.0
11,0.0
12,0.0
13,0.0
14,0.017465582213529789
15,-12.162568135176464
16,-3.304155463975917
17,-9.705385714785735
18,0.422617834829211
2,1, 1, 1, 0, 4,15.00,30.00,Tuesday
7,-11.1
8,0.0
9,0.0
10,0.0
11,0.0
12,0.0
13,0.0
14,-0.02075115919354033
15,-12.132526928430938
16,-3.3429787781941515
17,-9.735913153347724
18,0.38242091688892618
2,1, 1, 1, 0, 4,30.00,45.00,Tuesday
7,-11.1
8,0.0
9,0.0
10,0.0
11,0.0
12,0.0
13,0.0
14,-0.059203732571811908
15,-12.104153708212858
16,-3.380744699200932
17,-9.766546064727323
18,0.3418266195802818
2,1, 1, 1, 0, 4,45.00,60.00,Tuesday
7,-11.1
8,0.0
9,0.0
10,0.0
11,0.0
12,0.0
13,0.0
14,-0.09779087623191833
15,-12.077310827325184
16,-3.4182177046847075
17,-9.796452694296818
18,0.3010791519519704
2,1, 1, 1, 0, 5, 0.00,15.00,Tuesday
7,-10.975
8,0.0
9,0.0
10,0.0
11,0.0
12,0.0
13,0.0
14,-0.1304832587335429
15,-11.955045854763249
16,-3.4081139070296446
17,-9.71587633734498
18,0.26149820374175189
2,1, 1, 1, 0, 5,15.00,30.00,Tuesday
7,-10.85
8,0.0
9,0.0
10,0.0
11,0.0
12,0.0
13,0.0
14,-0.16294480075950527
15,-11.832879205825945
16,-3.400601052301795
17,-9.627762992675742
18,0.2236290701629633
2,1, 1, 1, 0, 5,30.00,45.00,Tuesday
7,-10.725
8,0.0
9,0.0
10,0.0
11,0.0
12,0.0
13,0.0
14,-0.19436552745676595
15,-11.710689727914286
16,-3.392996360798861
17,-9.53862253140801
18,0.18724383938547244
2,1, 1, 1, 0, 5,45.00,60.00,Tuesday
7,-10.6
8,0.0
9,0.0
10,0.0
11,0.0
12,0.0
13,0.0
14,-0.22490491799588989
15,-11.588509438198392
16,-3.3846624084369525
17,-9.449144940595147
18,0.1519345007429033
2,1, 1, 1, 0, 6, 0.00,15.00,Tuesday
7,-10.6
8,0.0
9,0.0
10,0.0
11,0.0
12,0.0
13,0.0
14,-0.2629333964969146
15,-11.589303272076421
16,-3.4113450698788485
17,-9.452900293231039
18,0.1160754188584644
2,1, 1, 1, 0, 6,15.00,30.00,Tuesday
7,-10.6
8,0.0
9,0.0
10,0.0
11,0.0
12,0.0
13,0.0
14,-0.30035851184742259
15,-11.59000007202101
16,-3.439915063360388
17,-9.460188540972695
18,0.07881777880470406
2,1, 1, 1, 0, 6,30.00,45.00,Tuesday
7,-10.6
8,0.0
9,0.0
10,0.0
11,0.0
12,0.0
13,0.0
14,-0.338337854696591
15,-11.59074202288139
16,-3.4684828718286555
17,-9.468280987242679
18,0.04035668217509392
2,1, 1, 1, 0, 6,45.00,60.00,Tuesday
7,-10.6
8,0.0
9,0.0
10,0.0
11,0.0
12,0.0
13,0.0
14,-0.376698785896875
15,-11.591484579534784
16,-3.4973247452427929
17,-9.476751818634114
18,0.0012088563655865766
2,1, 1, 1, 0, 7, 0.00,15.00,Tuesday
7,-10.6
8,0.0
9,0.0
10,0.0
11,0.0
12,0.0
13,0.0
14,-0.41295241498393139
15,-11.56571578317587
16,-3.536848993934882
17,-9.500224254467867
18,-0.03801638863076738
2,1, 1, 1, 0, 7,15.00,30.00,Tuesday
7,-10.6
8,0.0
9,0.0
10,0.0
11,0.0
12,0.0
13,0.0
14,-0.44941020490146135
15,-11.541288724056646
16,-3.571473410639271
17,-9.524876922473368
18,-0.07686719963413683
2,1, 1, 1, 0, 7,30.00,45.00,Tuesday
7,-10.6
8,0.0
9,0.0
10,0.0
11,0.0
12,0.0
13,0.0
14,-0.48565762900370826
15,-11.518096609930991
16,-3.605461685329715
17,-9.549218977879264
18,-0.11526908849186518
2,1, 1, 1, 0, 7,45.00,60.00,Tuesday
7,-10.6
8,0.0
9,0.0
10,0.0
11,0.0
12,0.0
13,0.0
14,-0.521637631057899
15,-11.496066893927738
16,-3.6389491530440525
17,-9.57283883803484
18,-0.15330299451549427
2,1, 1, 1, 0, 8, 0.00,15.00,Tuesday
7,-10.45
8,0.0
9,0.0
10,0.0
11,0.0
12,0.0
13,0.0
14,-0.5583854212289428
15,-11.448614272138649
16,-3.6386296418975236
17,-9.538169139332127
18,-0.19120460764342296
2,1, 1, 1, 0, 8,15.00,30.00,Tuesday
7,-10.3
8,77.83635125570177
9,1.0
10,22.819555959623899
11,1.0
12,22.819555959623899
13,77.83635125570177
14,-0.4880534658140965
15,-9.775788257212268
16,-3.23703391988505
17,-9.12706512780619
18,-0.2140482048363341
2,1, 1, 1, 0, 8,30.00,45.00,Tuesday
7,-10.15
8,382.80225054662847
9,1.0
10,109.75755355442667
11,1.0
12,109.75755355442667
13,382.80225054662847
14,-0.12597680859586259
15,-3.417951972509887
16,-1.6101909023510644
17,-7.721258028862962
18,-0.18099898191334208
2,1, 1, 1, 0, 8,45.00,60.00,Tuesday
7,-10.0
8,698.1846215562486
9,1.0
10,195.8764694434918
11,1.0
12,195.8764694434918
13,698.1846215562486
14,0.32138520929884775
15,3.072685502083402
16,0.16142637224720603
17,-6.2936126920301949
18,-0.0874183484312871
2,1, 1, 1, 0, 9, 0.00,15.00,Tuesday
7,-9.725
8,1014.638905935737
9,1.0
10,278.97248314719988
11,1.0
12,278.97248314719988
13,1014.638905935737
14,0.6628809176432795
15,8.256950789177575
16,1.7689459109725477
17,-5.050721490405806
18,0.05207766369896497
2,1, 1, 1, 0, 9,15.00,30.00,Tuesday
7,-9.45
8,1350.5681277582674
9,1.0
10,364.91995730569456
11,1.0
12,364.91995730569456
13,1350.5681277582674
14,1.0332189414707503
15,13.338348835722759
16,3.3472811165273699
17,-3.841946868260493
18,0.23049445407001618
2,1, 1, 1, 0, 9,30.00,45.00,Tuesday
7,-9.175
8,1576.0729545191558
9,1.0
10,420.35879993239237
11,1.0
12,420.35879993239237
13,1576.0729545191558
14,1.2859284907831348
15,16.09844112478551
16,4.366544743136501
17,-3.0896625428325708
18,0.4290746987856476
2,1, 1, 1, 0, 9,45.00,60.00,Tuesday
7,-8.9
8,1811.3807481081638
9,1.0
10,478.00138373643099
11,1.0
12,478.00138373643099
13,1811.3807481081638
14,1.583623721069425
15,19.094293243206825
16,5.396326176934167
17,-2.3204497096727438
18,0.6389846656790181
2,1, 1, 1, 0,10, 0.00,15.00,Tuesday
7,-8.350000000000002
8,2052.886747243369
9,1.0
10,536.9185644770597
11,1.0
12,536.9185644770597
13,2052.886747243369
14,1.821483328136471
15,20.215674988885416
16,6.434955179186545
17,-1.570004513465392
18,0.8637856667003436
2,1, 1, 1, 0,10,15.00,30.00,Tuesday
7,-7.800000000000001
8,2303.7230513037227
9,1.0
10,598.0969199229219
11,1.0
12,598.0969199229219
13,2303.7230513037227
14,2.0835042174215538
15,21.471504280085378
16,7.490652865242396
17,-0.8228406870410368
18,1.105151955506681
2,1, 1, 1, 0,10,30.00,45.00,Tuesday
7,-7.25
8,2471.2624626274
9,1.0
10,637.6133352894237
11,1.0
12,637.6133352894237
13,2471.2624626274
14,2.278419236231406
15,21.533829477225486
16,8.216685238369337
17,-0.33044687279942766
18,1.3487328612641585
2,1, 1, 1, 0,10,45.00,60.00,Tuesday
7,-6.7
8,2636.784816009174
9,1.0
10,676.6412284283772
11,1.0
12,676.6412284283772
13,2636.784816009174
14,2.4901311677264266
15,21.696088663182864
16,8.920457745776276
17,0.15751311395820268
18,1.5849401456573347
2,1, 1, 1, 0,11, 0.00,15.00,Tuesday
7,-6.275
8,2799.5545130672337
9,1.0
10,715.0112779846514
11,1.0
12,715.0112779846514
13,2799.5545130672337
14,2.7790059181823199
15,23.793365388245243
16,9.698274543040498
17,0.914782299820672
18,1.8177758247677785
2,1, 1, 1, 0,11,15.00,30.00,Tuesday
7,-5.85
8,2958.555005634146
9,1.0
10,752.5077794605232
11,1.0
12,752.5077794605232
13,2958.555005634146
14,3.0539913686564228
15,25.7282667247376
16,10.460974322931009
17,1.6518452126949797
18,2.0523177876482108
2,1, 1, 1, 0,11,30.00,45.00,Tuesday
7,-5.425
8,2916.1314901115258
9,1.0
10,742.5988714321785
11,1.0
12,742.5988714321785
13,2916.1314901115258
14,3.2075763362561555
15,25.5801195650801
16,10.564061805743222
17,1.9095857854368888
18,2.2730281102782219
2,1, 1, 1, 0,11,45.00,60.00,Tuesday
7,-5.0
8,2852.9337678755075
9,1.0
10,727.8169025450712
11,1.0
12,727.8169025450712
13,2852.9337678755075
14,3.357522769517876
15,25.35057231194998
16,10.58062438228842
17,2.128077030093266
18,2.468981841172435
2,1, 1, 1, 0,12, 0.00,15.00,Tuesday
7,-4.575
8,2742.392684181217
9,1.0
10,700.3759009170325
11,1.0
12,700.3759009170325
13,2742.392684181217
14,3.458184407723787
15,24.607704336791398
16,10.427268307978125
17,2.2624723151766377
18,2.6349528544585767
2,1, 1, 1, 0,12,15.00,30.00,Tuesday
7,-4.15
8,2658.6559047656876
9,1.0
10,681.6705029034473
11,1.0
12,681.6705029034473
13,2658.6559047656876
14,3.5776960906489445
15,24.276950867366844
16,10.384041917244076
17,2.4834092442006865
18,2.7781281858721984
2,1, 1, 1, 0,12,30.00,45.00,Tuesday
7,-3.7249999999999998
8,2331.5894843835787
9,1.0
10,602.01865277251
11,1.0
12,602.01865277251
13,2331.5894843835787
14,3.491353635757274
15,21.248567136584847
16,9.484442175380196
17,2.1130829894082128
18,2.8803179955102466
2,1, 1, 1, 0,12,45.00,60.00,Tuesday
7,-3.3
8,1902.6474117955254
9,1.0
10,493.55004396206007
11,1.0
12,493.55004396206007
13,1902.6474117955254
14,3.312892537277189
15,17.069799429157134
16,8.094923471976472
17,1.4268758487440892
18,2.9228418408261724
2,1, 1, 1, 0,13, 0.00,15.00,Tuesday
7,-3.0249999999999996
8,1566.472447216765
9,1.0
10,412.335026418112
11,1.0
12,412.335026418112
13,1566.472447216765
14,3.186792193072136
15,14.2247812479823
16,7.03046277740134
17,0.962179474060008
18,2.919107385642243
2,1, 1, 1, 0,13,15.00,30.00,Tuesday
7,-2.75
8,1143.4706186883682
9,1.0
10,305.94037763660148
11,1.0
12,305.94037763660148
13,1143.4706186883682
14,2.930206411471964
15,10.051199712052318
16,5.537389275583109
17,0.1983627539442523
18,2.875639100974728
2,1, 1, 1, 0,13,30.00,45.00,Tuesday
7,-2.475
8,1041.9696487744569
9,1.0
10,281.0763483922329
11,1.0
12,281.0763483922329
13,1041.9696487744569
14,2.917468107037983
15,9.537611625901933
16,5.234220108902889
17,0.26214510841316498
18,2.8218879018557718
2,1, 1, 1, 0,13,45.00,60.00,Tuesday
7,-2.2
8,942.5912266126629
9,1.0
10,256.7721209415886
11,1.0
12,256.7721209415886
13,942.5912266126629
14,2.887780481707279
15,8.930171645445054
16,4.979835186744481
17,0.3431983008614452
18,2.777352234438836
2,1, 1, 1, 0,14, 0.00,15.00,Tuesday
7,-1.9250000000000003
8,768.7481973099971
9,1.0
10,210.73276284570657
11,1.0
12,210.73276284570657
13,768.7481973099971
14,2.7842067428160406
15,7.381561997935298
16,4.35395014505832
17,0.15449807673792294
18,2.7380141250309908
2,1, 1, 1, 0,14,15.00,30.00,Tuesday
7,-1.6500000000000002
8,680.8641971716577
9,1.0
10,189.38488290342594
11,1.0
12,189.38488290342594
13,680.8641971716577
14,2.763277537819538
15,6.9744546751422968
16,4.102131925510378
17,0.21773420602306715
18,2.7041425094820505
2,1, 1, 1, 0,14,30.00,45.00,Tuesday
7,-1.375
8,649.6853484819967
9,1.0
10,179.3940297802914
11,1.0
12,179.3940297802914
13,649.6853484819967
14,2.765609872901335
15,7.0943201052093409
16,4.05051126385996
17,0.4105811934743997
18,2.6776717991995078
2,1, 1, 1, 0,14,45.00,60.00,Tuesday
7,-1.1
8,617.8627699587247
9,1.0
10,169.43349014176136
11,1.0
12,169.43349014176136
13,617.8627699587247
14,2.7661809693509835
15,7.191342796403704
16,3.995582379353664
17,0.6002245744523407
18,2.658775499769535
2,1, 1, 1, 0,15, 0.00,15.00,Tuesday
7,-1.1
8,649.6420380112065
9,1.0
10,178.15692317953907
11,1.0
12,178.15692317953907
13,649.6420380112065
14,2.8160039295116294
15,8.005375398991099
16,4.158241262812339
17,0.7557074390459775
18,2.6498930030017977
2,1, 1, 1, 0,15,15.00,30.00,Tuesday
7,-1.1
8,609.8338124401078
9,1.0
10,166.40516310952945
11,1.0
12,166.40516310952945
13,609.8338124401078
14,2.780474177756009
15,7.642052930528132
16,3.9841444207464749
17,0.6637967364647466
18,2.6448240209854325
2,1, 1, 1, 0,15,30.00,45.00,Tuesday
7,-1.1
8,513.174322336492
9,1.0
10,140.8967369711617
11,1.0
12,140.8967369711617
13,513.174322336492
14,2.6883314139984737
15,6.434210738465792
16,3.5456146008402245
17,0.3663698899679275
18,2.6336847597330315
2,1, 1, 1, 0,15,45.00,60.00,Tuesday
7,-1.1
8,421.4546892911661
9,1.0
10,116.57355796743004
11,1.0
12,116.57355796743004
13,421.4546892911661
14,2.59812381799812
15,5.222105192100176
16,3.098380580269577
17,0.060552939928697927
18,2.6079241179084686
2,1, 1, 1, 0,16, 0.00,15.00,Tuesday
7,-1.1
8,333.8477508930492
9,1.0
10,93.14939272689483
11,1.0
12,93.14939272689483
13,333.8477508930492
14,2.503222429179544
15,4.16076488282721
16,2.675214607280168
17,-0.17947288565386544
18,2.568345958219073
2,1, 1, 1, 0,16,15.00,30.00,Tuesday
7,-1.1
8,206.8104610791499
9,1.0
10,57.94047897402063
11,1.0
12,57.94047897402063
13,206.8104610791499
14,2.3408241283347386
15,2.032511559193982
16,1.995843903348657
17,-0.6322648406373901
18,2.5116711596961585
2,1, 1, 1, 0,16,30.00,45.00,Tuesday
7,-1.1
8,160.05627499213206
9,1.0
10,45.38251793443488
11,1.0
12,45.38251793443488
13,160.05627499213206
14,2.284634244401367
15,1.4149621279850618
16,1.7443357969325462
17,-0.7623758391598017
18,2.4450988186269266
2,1, 1, 1, 0,16,45.00,60.00,Tuesday
7,-1.1
8,111.56756030757345
9,1.0
10,32.02625108222755
11,1.0
12,32.02625108222755
13,111.56756030757345
14,2.194526871367903
15,0.541916112822479
16,1.490110982836086
17,-0.9122243314116076
18,2.3750063686164988
2,1, 1, 1, 0,17, 0.00,15.00,Tuesday
7,-1.1
8,61.144596875686087
9,1.0
10,17.762198626050539
11,1.0
12,17.762198626050539
13,61.144596875686087
14,2.0752105768028659
15,-0.7225227655098421
16,1.1637154021238985
17,-1.18859699852419
18,2.298845167236878
2,1, 1, 1, 0,17,15.00,30.00,Tuesday
7,-1.1
8,0.0
9,0.0
10,0.0
11,0.0
12,0.0
13,0.0
14,1.9071533215953716
15,-2.5654638277761157
16,0.7553143059293461
17,-1.556528915843728
18,2.2050179389487174
2,1, 1, 1, 0,17,30.00,45.00,Tuesday
7,-1.1
8,0.0
9,0.0
10,0.0
11,0.0
12,0.0
13,0.0
14,1.8615598137468655
15,-2.7068517133945004
16,0.6732725451169586
17,-1.6093212781796638
18,2.1109898001831195
2,1, 1, 1, 0,17,45.00,60.00,Tuesday
7,-1.1
8,0.0
9,0.0
10,0.0
11,0.0
12,0.0
13,0.0
14,1.8010342351116525
15,-2.908294690176897
16,0.6175828292560937
17,-1.6626035111600004
18,2.0314678410548
2,1, 1, 1, 0,18, 0.00,15.00,Tuesday
7,-1.25
8,0.0
9,0.0
10,0.0
11,0.0
12,0.0
13,0.0
14,1.752004942587616
15,-3.0547935789122886
16,0.5301373870142925
17,-1.7957000280864577
18,1.968914727962761
2,1, 1, 1, 0,18,15.00,30.00,Tuesday
7,-1.4
8,0.0
9,0.0
10,0.0
11,0.0
12,0.0
13,0.0
14,1.707891283406366
15,-3.2071632966231844
16,0.45626067717762455
17,-1.9182297123019794
18,1.919308788992141
2,1, 1, 1, 0,18,30.00,45.00,Tuesday
7,-1.5499999999999999
8,0.0
9,0.0
10,0.0
11,0.0
12,0.0
13,0.0
14,1.6681876578615036
15,-3.358885208999922
16,0.38627128730524876
17,-2.039725980554863
18,1.8776677057043856
2,1, 1, 1, 0,18,45.00,60.00,Tuesday
7,-1.7
8,0.0
9,0.0
10,0.0
11,0.0
12,0.0
13,0.0
14,1.6318753780034512
15,-3.5107804550542927
16,0.3193379186091079
17,-2.1599555256201485
18,1.8405436502064412
2,1, 1, 1, 0,19, 0.00,15.00,Tuesday
7,-1.825
8,0.0
9,0.0
10,0.0
11,0.0
12,0.0
13,0.0
14,1.6226096487442552
15,-3.3475306315092796
16,0.28291641470860898
17,-2.2052852729117378
18,1.809643682362579
2,1, 1, 1, 0,19,15.00,30.00,Tuesday
7,-1.9500000000000002
8,0.0
9,0.0
10,0.0
11,0.0
12,0.0
13,0.0
14,1.6130605624549313
15,-3.2674402397805415
16,0.2464023836208753
17,-2.2680042152644548
18,1.7864155257081556
2,1, 1, 1, 0,19,30.00,45.00,Tuesday
7,-2.075
8,0.0
9,0.0
10,0.0
11,0.0
12,0.0
13,0.0
14,1.5982317007882954
15,-3.3376309130584937
16,0.20410777789413715
17,-2.3551757553278778
18,1.7691200323305024
2,1, 1, 1, 0,19,45.00,60.00,Tuesday
7,-2.2
8,0.0
9,0.0
10,0.0
11,0.0
12,0.0
13,0.0
14,1.5867043086287534
15,-3.303634966758711
16,0.1682253782682892
17,-2.4309760894368539
18,1.7547477260429799
2,1, 1, 1, 0,20, 0.00,15.00,Tuesday
7,-1.9250000000000003
8,0.0
9,0.0
10,0.0
11,0.0
12,0.0
13,0.0
14,1.591466329740349
15,-2.9994944014357376
16,0.24680296906240074
17,-2.222743748975404
18,1.7435512178291557
2,1, 1, 1, 0,20,15.00,30.00,Tuesday
7,-1.6500000000000002
8,0.0
9,0.0
10,0.0
11,0.0
12,0.0
13,0.0
14,1.5972326051433122
15,-2.698631378582796
16,0.3246140501709647
17,-2.003273066028669
18,1.735895414882353
2,1, 1, 1, 0,20,30.00,45.00,Tuesday
7,-1.375
8,0.0
9,0.0
10,0.0
11,0.0
12,0.0
13,0.0
14,1.604687858633017
15,-2.3991989180552055
16,0.40439559745129829
17,-1.7811899871076662
18,1.7313565934600613
2,1, 1, 1, 0,20,45.00,60.00,Tuesday
7,-1.1
8,0.0
9,0.0
10,0.0
11,0.0
12,0.0
13,0.0
14,1.6137897639386206
15,-2.101149569841626
16,0.48640277663150757
17,-1.5568907114632112
18,1.7292048753339855
2,1, 1, 1, 0,21, 0.00,15.00,Tuesday
7,-1.25
8,0.0
9,0.0
10,0.0
11,0.0
12,0.0
13,0.0
14,1.5765413718114275
15,-2.3945214911933618
16,0.4215981158810109
17,-1.6904658702047755
18,1.7227510296224993
2,1, 1, 1, 0,21,15.00,30.00,Tuesday
7,-1.4
8,0.0
9,0.0
10,0.0
11,0.0
12,0.0
13,0.0
14,1.5396870665618583
15,-2.6174678987985247
16,0.36016575766973349
17,-1.8171122388802133
18,1.7070256796581816
2,1, 1, 1, 0,21,30.00,45.00,Tuesday
7,-1.5499999999999999
8,0.0
9,0.0
10,0.0
11,0.0
12,0.0
13,0.0
14,1.4886343292308713
15,-2.977715808791706
16,0.2869174192244941
17,-1.9655848775782375
18,1.6804716202325312
2,1, 1, 1, 0,21,45.00,60.00,Tuesday
7,-1.7
8,0.0
9,0.0
10,0.0
11,0.0
12,0.0
13,0.0
14,1.432363290412258
15,-3.4476973694032417
16,0.20150659720980003
17,-2.137855770774877
18,1.6447728316673696
2,1, 1, 1, 0,22, 0.00,15.00,Tuesday
7,-1.5499999999999999
8,0.0
9,0.0
10,0.0
11,0.0
12,0.0
13,0.0
14,1.4509060793933702
15,-2.9386674682715214
16,0.24305405096743017
17,-1.9879665950822983
18,1.6139381588653128
2,1, 1, 1, 0,22,15.00,30.00,Tuesday
7,-1.4
8,0.0
9,0.0
10,0.0
11,0.0
12,0.0
13,0.0
14,1.4617006977577055
15,-2.5939148473239976
16,0.29590531440368297
17,-1.840724502455032
18,1.5960040817657846
2,1, 1, 1, 0,22,30.00,45.00,Tuesday
7,-1.25
8,0.0
9,0.0
10,0.0
11,0.0
12,0.0
13,0.0
14,1.4698254053002915
15,-2.3673060196271025
16,0.3421561654561174
17,-1.7124072767664985
18,1.589297400784097
2,1, 1, 1, 0,22,45.00,60.00,Tuesday
7,-1.1
8,0.0
9,0.0
10,0.0
11,0.0
12,0.0
13,0.0
14,1.4817380050257945
15,-2.073002430277643
16,0.4005831357964098
17,-1.5632292008090759
18,1.5889441453910405
2,1, 1, 1, 0,23, 0.00,15.00,Tuesday
7,-1.25
8,0.0
9,0.0
10,0.0
11,0.0
12,0.0
13,0.0
14,1.444588525877616
15,-2.376861042423358
16,0.2892270272066071
17,-1.8175338277392257
18,1.5846241712747298
2,1, 1, 1, 0,23,15.00,30.00,Tuesday
7,-1.4
8,0.0
9,0.0
10,0.0
11,0.0
12,0.0
13,0.0
14,1.4088634030383696
15,-2.681414553281732
16,0.17160651821268403
17,-2.091727833751179
18,1.5704518419540273
2,1, 1, 1, 0,23,30.00,45.00,Tuesday
7,-1.5499999999999999
8,0.0
9,0.0
10,0.0
11,0.0
12,0.0
13,0.0
14,1.3694766085706288
15,-2.9865379462285697
16,0.05314421446877304
17,-2.366468883713651
18,1.5466900295596558
2,1, 1, 1, 0,23,45.00,60.00,Tuesday
7,-1.7
8,0.0
9,0.0
10,0.0
11,0.0
12,0.0
13,0.0
14,1.3263494205409392
15,-3.292022450783559
16,-0.06825820464575827
17,-2.6419959083943924
18,1.5159267490585422
2,1, 1, 1, 0,24, 0.00,15.00,Tuesday
7,-1.7
8,0.0
9,0.0
10,0.0
11,0.0
12,0.0
13,0.0
14,1.3017283646251373
15,-3.3456882251576278
16,-0.10858428555349065
17,-2.700889550668876
18,1.4838968844894205
2,1, 1, 1, 0,24,15.00,30.00,Tuesday
7,-1.7
8,0.0
9,0.0
10,0.0
11,0.0
12,0.0
13,0.0
14,1.2739774626278638
15,-3.4001881439244374
16,-0.14611152275921314
17,-2.7576858071108178
18,1.453907337794167
2,1, 1, 1, 0,24,30.00,45.00,Tuesday
7,-1.7
8,0.0
9,0.0
10,0.0
11,0.0
12,0.0
13,0.0
14,1.246950982625088
15,-3.4545434901678147
16,-0.18421942815655258
17,-2.8146115711883228
18,1.4262567068247612
2,1, 1, 1, 0,24,45.00,60.00,Tuesday
7,-1.7
8,0.0
9,0.0
10,0.0
11,0.0
12,0.0
13,0.0
14,1.2205722862896654
15,-3.508897185459331
16,-0.22168175924781509
17,-2.871250057158477
18,1.4001122170468788
End of Data
 Number of Records Written=        1152
