Program Version,EnergyPlus, Version 9.5.0-de239b2e5f, YMD=2023.02.17 18:12
1,5,Environment Title[],Latitude[deg],Longitude[deg],Time Zone[],Elevation[m]
2,8,Day of Simulation[],Month[],Day of Month[],DST Indicator[1=yes 0=no],Hour[],StartMinute[],EndMinute[],DayType
3,5,Cumulative Day of Simulation[],Month[],Day of Month[],DST Indicator[1=yes 0=no],DayType  ! When Daily Report Variables Requested
4,2,Cumulative Days of Simulation[],Month[]  ! When Monthly Report Variables Requested
5,1,Cumulative Days of Simulation[] ! When Run Period Report Variables Requested
6,1,Calendar Year of Simulation[] ! When Annual Report Variables Requested
7,1,Environment,Site Outdoor Air Drybulb Temperature [C] !TimeStep
8,1,ZONE ONE,Zone Windows Total Transmitted Solar Radiation Rate [W] !TimeStep
9,1,ZN001:WALL001,Surface Outside Face Sunlit Fraction [] !TimeStep
10,1,ZN001:WALL001,Surface Outside Face Incident Solar Radiation Rate per Area [W/m2] !TimeStep
11,1,ZN001:WALL001:WIN001,Surface Outside Face Sunlit Fraction [] !TimeStep
12,1,ZN001:WALL001:WIN001,Surface Outside Face Incident Solar Radiation Rate per Area [W/m2] !TimeStep
13,1,ZN001:WALL001:WIN001,Surface Window Transmitted Solar Radiation Rate [W] !TimeStep
14,1,ZN001:WALL001,Surface Inside Face Temperature [C] !TimeStep
15,1,ZN001:WALL001,Surface Outside Face Temperature [C] !TimeStep
16,1,ZN001:WALL001:WIN001,Surface Inside Face Temperature [C] !TimeStep
17,1,ZN001:WALL001:WIN001,Surface Outside Face Temperature [C] !TimeStep
18,1,ZONE ONE,Zone Mean Air Temperature [C] !TimeStep
End of Data Dictionary
1,RUN PERIOD 1,  41.98, -87.92,  -6.00, 201.00
2,1, 1, 1, 0, 1, 0.00,15.00,Tuesday
7,-4.324999999999999
8,0.0
9,0.0
10,0.0
11,0.0
12,0.0
13,0.0
14,1.6717903820464458
15,-5.973532727429743
16,0.31116510137883326
17,-5.256255488753595
18,2.0252718689299855
2,1, 1, 1, 0, 1,15.00,30.00,Tuesday
7,-6.949999999999999
8,0.0
9,0.0
10,0.0
11,0.0
12,0.0
13,0.0
14,1.4991225044954886
15,-8.441441350772236
16,-0.24943666322405989
17,-7.387570607735711
18,1.943240974896117
2,1, 1, 1, 0, 1,30.00,45.00,Tuesday
7,-9.575
8,0.0
9,0.0
10,0.0
11,0.0
12,0.0
13,0.0
14,1.3061546483793732
15,-10.917731823507426
16,-0.8116025101099922
17,-9.525665194254259
18,1.8290520632893075
2,1, 1, 1, 0, 1,45.00,60.00,Tuesday
7,-12.2
8,0.0
9,0.0
10,0.0
11,0.0
12,0.0
13,0.0
14,1.098073744101754
15,-13.400522101906207
16,-1.3876096737431568
17,-11.671983163744244
18,1.6916367522072607
2,1, 1, 1, 0, 2, 0.00,15.00,Tuesday
7,-12.075
8,0.0
9,0.0
10,0.0
11,0.0
12,0.0
13,0.0
14,1.044561990668987
15,-13.202103080014164
16,-1.4568051933014772
17,-11.522518088476659
18,1.5668734177883226
2,1, 1, 1, 0, 2,15.00,30.00,Tuesday
7,-11.95
8,0.0
9,0.0
10,0.0
11,0.0
12,0.0
13,0.0
14,0.9762071529207528
15,-13.02476126030045
16,-1.4825191671664584
17,-11.36872046801841
18,1.4724974985504893
2,1, 1, 1, 0, 2,30.00,45.00,Tuesday
7,-11.825
8,0.0
9,0.0
10,0.0
11,0.0
12,0.0
13,0.0
14,0.9242583117835688
15,-12.846238732944773
16,-1.5037694226843997
17,-11.214650989666723
18,1.4045470840861663
2,1, 1, 1, 0, 2,45.00,60.00,Tuesday
7,-11.7
8,0.0
9,0.0
10,0.0
11,0.0
12,0.0
13,0.0
14,0.8834151463726875
15,-12.66777452051768
16,-1.5125481329879449
17,-11.058325152544967
18,1.352858420937947
2,1, 1, 1, 0, 3, 0.00,15.00,Tuesday
7,-11.549999999999999
8,0.0
9,0.0
10,0.0
11,0.0
12,0.0
13,0.0
14,0.8441326426401404
15,-12.543365106695598
16,-1.5150998461931522
17,-10.92937234411852
18,1.3086281628837889
2,1, 1, 1, 0, 3,15.00,30.00,Tuesday
7,-11.399999999999999
8,0.0
9,0.0
10,0.0
11,0.0
12,0.0
13,0.0
14,0.8082917960070852
15,-12.420392036519628
16,-1.5181715265648564
17,-10.79264215421449
18,1.2671803146993686
2,1, 1, 1, 0, 3,30.00,45.00,Tuesday
7,-11.25
8,0.0
9,0.0
10,0.0
11,0.0
12,0.0
13,0.0
14,0.773478109007947
15,-12.299030353541708
16,-1.5196470943983514
17,-10.655329311644153
18,1.226947949171985
2,1, 1, 1, 0, 3,45.00,60.00,Tuesday
7,-11.1
8,0.0
9,0.0
10,0.0
11,0.0
12,0.0
13,0.0
14,0.7392003580486088
15,-12.17934175149952
16,-1.52047267949672
17,-10.518334731494292
18,1.1876070298418489
2,1, 1, 1, 0, 4, 0.00,15.00,Tuesday
7,-11.1
8,0.0
9,0.0
10,0.0
11,0.0
12,0.0
13,0.0
14,0.7014556081553069
15,-12.14847913340252
16,-1.5602705113358866
17,-10.52749495916487
18,1.148418981854784
2,1, 1, 1, 0, 4,15.00,30.00,Tuesday
7,-11.1
8,0.0
9,0.0
10,0.0
11,0.0
12,0.0
13,0.0
14,0.6641254675142313
15,-12.118809516235018
16,-1.5957474242948707
17,-10.543664616418028
18,1.1090691954287424
2,1, 1, 1, 0, 4,30.00,45.00,Tuesday
7,-11.1
8,0.0
9,0.0
10,0.0
11,0.0
12,0.0
13,0.0
14,0.6267049841363538
15,-12.090786386349662
16,-1.6306438496948204
17,-10.559876087558678
18,1.0695903164822438
2,1, 1, 1, 0, 4,45.00,60.00,Tuesday
7,-11.1
8,0.0
9,0.0
10,0.0
11,0.0
12,0.0
13,0.0
14,0.589251771179651
15,-12.064276474192905
16,-1.6653904036911627
17,-10.575568331736122
18,1.0300985310738898
2,1, 1, 1, 0, 5, 0.00,15.00,Tuesday
7,-10.975
8,0.0
9,0.0
10,0.0
11,0.0
12,0.0
13,0.0
14,0.5574390484281423
15,-11.94200391899743
16,-1.6704978922977035
17,-10.483584522318154
18,0.9915900356866023
2,1, 1, 1, 0, 5,15.00,30.00,Tuesday
7,-10.85
8,0.0
9,0.0
10,0.0
11,0.0
12,0.0
13,0.0
14,0.5257897137614519
15,-11.819830926683516
16,-1.676865408674871
17,-10.383871069776092
18,0.9545072749781912
2,1, 1, 1, 0, 5,30.00,45.00,Tuesday
7,-10.725
8,0.0
9,0.0
10,0.0
11,0.0
12,0.0
13,0.0
14,0.4950449438794758
15,-11.697638593853423
16,-1.6829372458608987
17,-10.283404723828824
18,0.9186806341575405
2,1, 1, 1, 0, 5,45.00,60.00,Tuesday
7,-10.6
8,0.0
9,0.0
10,0.0
11,0.0
12,0.0
13,0.0
14,0.466064891512161
15,-11.575456487600402
16,-1.6882781728123746
17,-10.182752948872804
18,0.8839075998060988
2,1, 1, 1, 0, 6, 0.00,15.00,Tuesday
7,-10.6
8,0.0
9,0.0
10,0.0
11,0.0
12,0.0
13,0.0
14,0.427779619284527
15,-11.576261673073068
16,-1.7178479790946995
17,-10.183496323989516
18,0.8485929241132513
2,1, 1, 1, 0, 6,15.00,30.00,Tuesday
7,-10.6
8,0.0
9,0.0
10,0.0
11,0.0
12,0.0
13,0.0
14,0.39123547721542975
15,-11.57690325311486
16,-1.7495099681888178
17,-10.188038262318515
18,0.8119271925383644
2,1, 1, 1, 0, 6,30.00,45.00,Tuesday
7,-10.6
8,0.0
9,0.0
10,0.0
11,0.0
12,0.0
13,0.0
14,0.35403192175081607
15,-11.577633253082104
16,-1.780793428521406
17,-10.193343626806382
18,0.7741406979216291
2,1, 1, 1, 0, 6,45.00,60.00,Tuesday
7,-10.6
8,0.0
9,0.0
10,0.0
11,0.0
12,0.0
13,0.0
14,0.3164742476890582
15,-11.578358795649942
16,-1.8124197022751787
17,-10.19901275337719
18,0.7357353610399695
2,1, 1, 1, 0, 7, 0.00,15.00,Tuesday
7,-10.6
8,0.0
9,0.0
10,0.0
11,0.0
12,0.0
13,0.0
14,0.2810856829310556
15,-11.552920132870878
16,-1.8477834557215829
17,-10.209507287861016
18,0.6973801189061739
2,1, 1, 1, 0, 7,15.00,30.00,Tuesday
7,-10.6
8,0.0
9,0.0
10,0.0
11,0.0
12,0.0
13,0.0
14,0.24551089399700055
15,-11.528801425167396
16,-1.8802655259296444
17,-10.221512210738525
18,0.6595102273362659
2,1, 1, 1, 0, 7,30.00,45.00,Tuesday
7,-10.6
8,0.0
9,0.0
10,0.0
11,0.0
12,0.0
13,0.0
14,0.21019137683423828
15,-11.50590306517063
16,-1.9124373191066866
17,-10.233332752055162
18,0.6221504796430862
2,1, 1, 1, 0, 7,45.00,60.00,Tuesday
7,-10.6
8,0.0
9,0.0
10,0.0
11,0.0
12,0.0
13,0.0
14,0.17516048754016004
15,-11.48415357200763
16,-1.9442490427686039
17,-10.244723678079027
18,0.5851818224936544
2,1, 1, 1, 0, 8, 0.00,15.00,Tuesday
7,-10.45
8,0.0
9,0.0
10,0.0
11,0.0
12,0.0
13,0.0
14,0.1391544430754502
15,-11.43638634647797
16,-1.961046176783725
17,-10.20310654910827
18,0.5481043727155963
2,1, 1, 1, 0, 8,15.00,30.00,Tuesday
7,-10.3
8,71.56792871975249
9,1.0
10,22.819555959623899
11,1.0
12,22.819555959623899
13,71.56792871975249
14,0.20777689307999357
15,-9.763621509699103
16,-1.5413641183768619
17,-9.803974163356145
18,0.5257645070792552
2,1, 1, 1, 0, 8,30.00,45.00,Tuesday
7,-10.15
8,354.0299290602728
9,1.0
10,109.75755355442667
11,1.0
12,109.75755355442667
13,354.0299290602728
14,0.5608222623359876
15,-3.4047170852581867
16,0.20134795554406538
17,-8.378467713566124
18,0.5581668214900976
2,1, 1, 1, 0, 8,45.00,60.00,Tuesday
7,-10.0
8,650.8026061160458
9,1.0
10,195.8764694434918
11,1.0
12,195.8764694434918
13,650.8026061160458
14,1.0302837682605322
15,3.116756496035277
16,2.027854356820626
17,-6.992407642789544
18,0.6503577444405941
2,1, 1, 1, 0, 9, 0.00,15.00,Tuesday
7,-9.725
8,953.3043628211269
9,1.0
10,278.97248314719988
11,1.0
12,278.97248314719988
13,953.3043628211269
14,1.3422870675815415
15,8.26360601025267
16,3.6184524064929066
17,-5.801653238313293
18,0.7919442724119955
2,1, 1, 1, 0, 9,15.00,30.00,Tuesday
7,-9.45
8,1278.5481108613147
9,1.0
10,364.91995730569456
11,1.0
12,364.91995730569456
13,1278.5481108613147
14,1.717130681384938
15,13.349732223098224
16,5.1892123510344849
17,-4.6320903165756139
18,0.9742442923073119
2,1, 1, 1, 0, 9,30.00,45.00,Tuesday
7,-9.175
8,1501.6689651177185
9,1.0
10,420.35879993239237
11,1.0
12,420.35879993239237
13,1501.6689651177185
14,1.9693366026228776
15,16.10848560194011
16,6.216388539867012
17,-3.929083633524499
18,1.1774113271411669
2,1, 1, 1, 0, 9,45.00,60.00,Tuesday
7,-8.9
8,1735.1383193393602
9,1.0
10,478.00138373643099
11,1.0
12,478.00138373643099
13,1735.1383193393602
14,2.268672908944413
15,19.104190296924718
16,7.249455556558701
17,-3.1954345199109754
18,1.392626626414071
2,1, 1, 1, 0,10, 0.00,15.00,Tuesday
7,-8.350000000000002
8,1975.0591100537159
9,1.0
10,536.9185644770597
11,1.0
12,536.9185644770597
13,1975.0591100537159
14,2.5081808688129665
15,20.224652579956297
16,8.31142581116194
17,-2.4357731200359469
18,1.625063740930937
2,1, 1, 1, 0,10,15.00,30.00,Tuesday
7,-7.800000000000001
8,2223.9470947223846
9,1.0
10,598.0969199229219
11,1.0
12,598.0969199229219
13,2223.9470947223846
14,2.7732985241421
15,21.479926208893166
16,9.396190048903179
17,-1.6658590253880448
18,1.8726081401366122
2,1, 1, 1, 0,10,30.00,45.00,Tuesday
7,-7.25
8,2391.940481956653
9,1.0
10,637.6133352894237
11,1.0
12,637.6133352894237
13,2391.940481956653
14,2.9706474429649218
15,21.54164361609991
16,10.15857372752373
17,-1.1641710128986916
18,2.120732633831266
2,1, 1, 1, 0,10,45.00,60.00,Tuesday
7,-6.7
8,2557.310342406259
9,1.0
10,676.6412284283772
11,1.0
12,676.6412284283772
13,2557.310342406259
14,3.1840636515257128
15,21.703430228638046
16,10.89437148572739
17,-0.6541176615233439
18,2.3606340764688444
2,1, 1, 1, 0,11, 0.00,15.00,Tuesday
7,-6.275
8,2719.427216426026
9,1.0
10,715.0112779846514
11,1.0
12,715.0112779846514
13,2719.427216426026
14,3.47406189659412
15,23.800793985306787
16,11.661192625476588
17,0.10435095954562712
18,2.5960695924867984
2,1, 1, 1, 0,11,15.00,30.00,Tuesday
7,-5.85
8,2877.417086129279
9,1.0
10,752.5077794605232
11,1.0
12,752.5077794605232
13,2877.417086129279
14,3.7498184187979848
15,25.735613302110929
16,12.414446647261059
17,0.8385942741613803
18,2.832040680598556
2,1, 1, 1, 0,11,30.00,45.00,Tuesday
7,-5.425
8,2835.5349808371727
9,1.0
10,742.5988714321785
11,1.0
12,742.5988714321785
13,2835.5349808371727
14,3.902557390043888
15,25.5873458222568
16,12.499785285046983
17,1.117170249545211
18,3.0529917130574426
2,1, 1, 1, 0,11,45.00,60.00,Tuesday
7,-5.0
8,2772.923910988253
9,1.0
10,727.8169025450712
11,1.0
12,727.8169025450712
13,2772.923910988253
14,4.051115928961457
15,25.357792632055806
16,12.489971792905635
17,1.3586420519361582
18,3.248128575217899
2,1, 1, 1, 0,12, 0.00,15.00,Tuesday
7,-4.575
8,2664.822954671648
9,1.0
10,700.3759009170325
11,1.0
12,700.3759009170325
13,2664.822954671648
14,4.150070295877663
15,24.614890151967346
16,12.296755776726514
17,1.523066245129371
18,3.4124017174052985
2,1, 1, 1, 0,12,15.00,30.00,Tuesday
7,-4.15
8,2580.894828475442
9,1.0
10,681.6705029034473
11,1.0
12,681.6705029034473
13,2580.894828475442
14,4.267321424336365
15,24.284137184500819
16,12.216504401890859
17,1.7724636034128026
18,3.553092977321346
2,1, 1, 1, 0,12,30.00,45.00,Tuesday
7,-3.7249999999999998
8,2259.3077124563117
9,1.0
10,602.01865277251
11,1.0
12,602.01865277251
13,2259.3077124563117
14,4.178242495416942
15,21.255618671197447
16,11.262338352276175
17,1.4626311775499517
18,3.6524563239294118
2,1, 1, 1, 0,12,45.00,60.00,Tuesday
7,-3.3
8,1841.4287184027517
9,1.0
10,493.55004396206007
11,1.0
12,493.55004396206007
13,1841.4287184027517
14,3.9931472572849766
15,17.076735584847915
16,9.793692753581923
17,0.8575082312754603
18,3.693250531336798
2,1, 1, 1, 0,13, 0.00,15.00,Tuesday
7,-3.0249999999999996
8,1510.1870283450449
9,1.0
10,412.335026418112
11,1.0
12,412.335026418112
13,1510.1870283450449
14,3.862108472138591
15,14.231688328232904
16,8.659474161953142
17,0.44833655687790499
18,3.68706361667445
2,1, 1, 1, 0,13,15.00,30.00,Tuesday
7,-2.75
8,1097.5186598189753
9,1.0
10,305.94037763660148
11,1.0
12,305.94037763660148
13,1097.5186598189753
14,3.60952023568611
15,10.057434138412863
16,7.083279447472933
17,-0.2335374720787513
18,3.636199973605616
2,1, 1, 1, 0,13,30.00,45.00,Tuesday
7,-2.475
8,997.8347210574955
9,1.0
10,281.0763483922329
11,1.0
12,281.0763483922329
13,997.8347210574955
14,3.5855798162136156
15,9.544318815532865
16,6.723305653473403
17,-0.14440624888050025
18,3.5738567305509476
2,1, 1, 1, 0,13,45.00,60.00,Tuesday
7,-2.2
8,900.1994191962868
9,1.0
10,256.7721209415886
11,1.0
12,256.7721209415886
13,900.1994191962868
14,3.5537775064683116
15,8.936495569154742
16,6.411759876921565
17,-0.03278787126203042
18,3.522640501036603
2,1, 1, 1, 0,14, 0.00,15.00,Tuesday
7,-1.9250000000000003
8,732.8655907144981
9,1.0
10,210.73276284570657
11,1.0
12,210.73276284570657
13,732.8655907144981
14,3.4480514810695208
15,7.3877259556373409
16,5.7162731960443129
17,-0.185413609920829
18,3.477871926818741
2,1, 1, 1, 0,14,15.00,30.00,Tuesday
7,-1.6500000000000002
8,646.3774883140063
9,1.0
10,189.38488290342594
11,1.0
12,189.38488290342594
13,646.3774883140063
14,3.4240500166768679
15,6.982556651253166
16,5.4107945700086479
17,-0.09685926972719017
18,3.439662807064299
2,1, 1, 1, 0,14,30.00,45.00,Tuesday
7,-1.375
8,617.9858986324632
9,1.0
10,179.3940297802914
11,1.0
12,179.3940297802914
13,617.9858986324632
14,3.425106318575899
15,7.102983767148108
16,5.303818252386463
17,0.10924592041425285
18,3.4098885038458435
2,1, 1, 1, 0,14,45.00,60.00,Tuesday
7,-1.1
8,588.6932238625436
9,1.0
10,169.43349014176136
11,1.0
12,169.43349014176136
13,588.6932238625436
14,3.4262886687728018
15,7.200438487103531
16,5.195194460162838
17,0.3136671639983888
18,3.387659109962521
2,1, 1, 1, 0,15, 0.00,15.00,Tuesday
7,-1.1
8,618.6771475466255
9,1.0
10,178.15692317953907
11,1.0
12,178.15692317953907
13,618.6771475466255
14,3.474685251081589
15,8.01544464367978
16,5.352263545485016
17,0.45762672411080987
18,3.375737878519341
2,1, 1, 1, 0,15,15.00,30.00,Tuesday
7,-1.1
8,581.0506986351386
9,1.0
10,166.40516310952945
11,1.0
12,166.40516310952945
13,581.0506986351386
14,3.4391398011421039
15,7.651391508860532
16,5.160243795124018
17,0.36631118029077927
18,3.36767918790434
2,1, 1, 1, 0,15,30.00,45.00,Tuesday
7,-1.1
8,487.62380365139259
9,1.0
10,140.8967369711617
11,1.0
12,140.8967369711617
13,487.62380365139259
14,3.3506214607495616
15,6.443241479081974
16,4.705549209228593
17,0.08638457852566717
18,3.350774790812912
2,1, 1, 1, 0,15,45.00,60.00,Tuesday
7,-1.1
8,399.16345704405486
9,1.0
10,116.57355796743004
11,1.0
12,116.57355796743004
13,399.16345704405486
14,3.2460878042874854
15,5.222880332520066
16,4.248132853504899
17,-0.20790857231190786
18,3.3189823662264388
2,1, 1, 1, 0,16, 0.00,15.00,Tuesday
7,-1.1
8,315.01856693619978
9,1.0
10,93.14939272689483
11,1.0
12,93.14939272689483
13,315.01856693619978
14,3.1673729911009707
15,4.176880565195918
16,3.805428181784521
17,-0.43877471662779046
18,3.273242263053957
2,1, 1, 1, 0,16,15.00,30.00,Tuesday
7,-1.1
8,194.46754305814083
9,1.0
10,57.94047897402063
11,1.0
12,57.94047897402063
13,194.46754305814083
14,3.0050242598076419
15,2.0456786887434519
16,3.074003554586511
17,-0.8812365253750727
18,3.2106094391028567
2,1, 1, 1, 0,16,30.00,45.00,Tuesday
7,-1.1
8,149.82451960460407
9,1.0
10,45.38251793443488
11,1.0
12,45.38251793443488
13,149.82451960460407
14,2.945428775847052
15,1.4284445110616502
16,2.7843348155111018
17,-1.0138678410946796
18,3.139267806510279
2,1, 1, 1, 0,16,45.00,60.00,Tuesday
7,-1.1
8,104.00572991011612
9,1.0
10,32.02625108222755
11,1.0
12,32.02625108222755
13,104.00572991011612
14,2.854109292856616
15,0.5569686922022791
16,2.4978446599833434
17,-1.1708917352342497
18,3.0655149728397768
2,1, 1, 1, 0,17, 0.00,15.00,Tuesday
7,-1.1
8,56.8254897678188
9,1.0
10,17.762198626050539
11,1.0
12,17.762198626050539
13,56.8254897678188
14,2.734648438082891
15,-0.7055542939039732
16,2.1534921308177674
17,-1.4696654688513036
18,2.9864831398409974
2,1, 1, 1, 0,17,15.00,30.00,Tuesday
7,-1.1
8,0.0
9,0.0
10,0.0
11,0.0
12,0.0
13,0.0
14,2.567558274068651
15,-2.547666842359963
16,1.7334134382130629
17,-1.8213725214039869
18,2.891357226929783
2,1, 1, 1, 0,17,30.00,45.00,Tuesday
7,-1.1
8,0.0
9,0.0
10,0.0
11,0.0
12,0.0
13,0.0
14,2.520416705820197
15,-2.6885289583825
16,1.6412412677780708
17,-1.8835219157754182
18,2.7964684039050495
2,1, 1, 1, 0,17,45.00,60.00,Tuesday
7,-1.1
8,0.0
9,0.0
10,0.0
11,0.0
12,0.0
13,0.0
14,2.458977238141109
15,-2.888451772067274
16,1.5818748208010903
17,-1.9534517540178059
18,2.716204639026397
2,1, 1, 1, 0,18, 0.00,15.00,Tuesday
7,-1.25
8,0.0
9,0.0
10,0.0
11,0.0
12,0.0
13,0.0
14,2.4091419661844175
15,-3.0351412085417439
16,1.5033280467587816
17,-2.0969291471301405
18,2.653107523588937
2,1, 1, 1, 0,18,15.00,30.00,Tuesday
7,-1.4
8,0.0
9,0.0
10,0.0
11,0.0
12,0.0
13,0.0
14,2.364379418932545
15,-3.187484383106011
16,1.437575469884223
17,-2.229696187449747
18,2.603158818076485
2,1, 1, 1, 0,18,30.00,45.00,Tuesday
7,-1.5499999999999999
8,0.0
9,0.0
10,0.0
11,0.0
12,0.0
13,0.0
14,2.3241815361305577
15,-3.339202131153054
16,1.3761327283044694
17,-2.36214923729176
18,2.56130884644879
2,1, 1, 1, 0,18,45.00,60.00,Tuesday
7,-1.7
8,0.0
9,0.0
10,0.0
11,0.0
12,0.0
13,0.0
14,2.2874614901573988
15,-3.4910884473555057
16,1.3180297935787167
17,-2.4937710857852837
18,2.5240448519484097
2,1, 1, 1, 0,19, 0.00,15.00,Tuesday
7,-1.825
8,0.0
9,0.0
10,0.0
11,0.0
12,0.0
13,0.0
14,2.277416133303785
15,-3.330061592295579
16,1.2893720062138528
17,-2.513832921275423
18,2.4930571965245744
2,1, 1, 1, 0,19,15.00,30.00,Tuesday
7,-1.9500000000000002
8,0.0
9,0.0
10,0.0
11,0.0
12,0.0
13,0.0
14,2.2670936224896924
15,-3.25191052859702
16,1.264042108533772
17,-2.557637142331771
18,2.469809799324341
2,1, 1, 1, 0,19,30.00,45.00,Tuesday
7,-2.075
8,0.0
9,0.0
10,0.0
11,0.0
12,0.0
13,0.0
14,2.2517113544386819
15,-3.3225913276094638
16,1.231425311258704
17,-2.6465007618051006
18,2.4525296741897577
2,1, 1, 1, 0,19,45.00,60.00,Tuesday
7,-2.2
8,0.0
9,0.0
10,0.0
11,0.0
12,0.0
13,0.0
14,2.2397156900842827
15,-3.2903479259469017
16,1.208172417064759
17,-2.7067390070866965
18,2.4382013670581217
2,1, 1, 1, 0,20, 0.00,15.00,Tuesday
7,-1.9250000000000003
8,0.0
9,0.0
10,0.0
11,0.0
12,0.0
13,0.0
14,2.2436197891917146
15,-2.986644479630757
16,1.2587842462537538
17,-2.468843187532343
18,2.4266553911064596
2,1, 1, 1, 0,20,15.00,30.00,Tuesday
7,-1.6500000000000002
8,0.0
9,0.0
10,0.0
11,0.0
12,0.0
13,0.0
14,2.2480577943119899
15,-2.686194040144205
16,1.3104752280981984
17,-2.2244537857291677
18,2.4180976059516716
2,1, 1, 1, 0,20,30.00,45.00,Tuesday
7,-1.375
8,0.0
9,0.0
10,0.0
11,0.0
12,0.0
13,0.0
14,2.25397236877376
15,-2.3871447980583295
16,1.3636350442405388
17,-1.9787639410147904
18,2.412171943994021
2,1, 1, 1, 0,20,45.00,60.00,Tuesday
7,-1.1
8,0.0
9,0.0
10,0.0
11,0.0
12,0.0
13,0.0
14,2.2613024947835815
15,-2.0894635357622675
16,1.4184803031017737
17,-1.731879149305371
18,2.4082977488505108
2,1, 1, 1, 0,21, 0.00,15.00,Tuesday
7,-1.25
8,0.0
9,0.0
10,0.0
11,0.0
12,0.0
13,0.0
14,2.223458058755905
15,-2.3808786510147375
16,1.367268996675648
17,-1.8971088923115076
18,2.4001570742868845
2,1, 1, 1, 0,21,15.00,30.00,Tuesday
7,-1.4
8,0.0
9,0.0
10,0.0
11,0.0
12,0.0
13,0.0
14,2.1864245793297778
15,-2.60283653064214
16,1.3146533827085705
17,-2.0444553366717175
18,2.3830165087225425
2,1, 1, 1, 0,21,30.00,45.00,Tuesday
7,-1.5499999999999999
8,0.0
9,0.0
10,0.0
11,0.0
12,0.0
13,0.0
14,2.1352732161547
15,-2.9606171495895925
16,1.2482455522084593
17,-2.231051144990488
18,2.3553602418561314
2,1, 1, 1, 0,21,45.00,60.00,Tuesday
7,-1.7
8,0.0
9,0.0
10,0.0
11,0.0
12,0.0
13,0.0
14,2.0788449404011999
15,-3.4278219158899598
16,1.1680036934774308
17,-2.4513981808401015
18,2.3188255931469046
2,1, 1, 1, 0,22, 0.00,15.00,Tuesday
7,-1.5499999999999999
8,0.0
9,0.0
10,0.0
11,0.0
12,0.0
13,0.0
14,2.0958934352215796
15,-2.9221105764321018
16,1.190209478469626
17,-2.2332350453646088
18,2.2871468802394596
2,1, 1, 1, 0,22,15.00,30.00,Tuesday
7,-1.4
8,0.0
9,0.0
10,0.0
11,0.0
12,0.0
13,0.0
14,2.104770031216422
15,-2.57957998295621
16,1.2297202995459316
17,-2.0490400945116109
18,2.268285638581907
2,1, 1, 1, 0,22,30.00,45.00,Tuesday
7,-1.25
8,0.0
9,0.0
10,0.0
11,0.0
12,0.0
13,0.0
14,2.1111683278391646
15,-2.3539572430585578
16,1.2653448515246737
17,-1.9068537581320016
18,2.260569980515644
2,1, 1, 1, 0,22,45.00,60.00,Tuesday
7,-1.1
8,0.0
9,0.0
10,0.0
11,0.0
12,0.0
13,0.0
14,2.121353971063123
15,-2.0614637561827164
16,1.3056525229025625
17,-1.7199704733104682
18,2.259016103923506
2,1, 1, 1, 0,23, 0.00,15.00,Tuesday
7,-1.25
8,0.0
9,0.0
10,0.0
11,0.0
12,0.0
13,0.0
14,2.084068818186402
15,-2.3651683497909317
16,1.2318049948043495
17,-2.00686740281202
18,2.2537091818368166
2,1, 1, 1, 0,23,15.00,30.00,Tuesday
7,-1.4
8,0.0
9,0.0
10,0.0
11,0.0
12,0.0
13,0.0
14,2.049623585139852
15,-2.669690558363758
16,1.1437600776399677
17,-2.3020871645355784
18,2.2391220448148818
2,1, 1, 1, 0,23,30.00,45.00,Tuesday
7,-1.5499999999999999
8,0.0
9,0.0
10,0.0
11,0.0
12,0.0
13,0.0
14,2.009442753162409
15,-2.9748449639265885
16,1.0548345843882885
17,-2.597196622480169
18,2.2154296827302675
2,1, 1, 1, 0,23,45.00,60.00,Tuesday
7,-1.7
8,0.0
9,0.0
10,0.0
11,0.0
12,0.0
13,0.0
14,1.9667815646312255
15,-3.2802602059727619
16,0.9620231735030416
17,-2.8928244941541836
18,2.1850836979219276
2,1, 1, 1, 0,24, 0.00,15.00,Tuesday
7,-1.7
8,0.0
9,0.0
10,0.0
11,0.0
12,0.0
13,0.0
14,1.9418993258011268
15,-3.3339638360196748
16,0.9236572057608328
17,-2.9516394030356425
18,2.1534477983316298
2,1, 1, 1, 0,24,15.00,30.00,Tuesday
7,-1.7
8,0.0
9,0.0
10,0.0
11,0.0
12,0.0
13,0.0
14,1.9139361168299989
15,-3.3884637819493967
16,0.8897062464865826
17,-3.0105329249587386
18,2.123659073494549
2,1, 1, 1, 0,24,30.00,45.00,Tuesday
7,-1.7
8,0.0
9,0.0
10,0.0
11,0.0
12,0.0
13,0.0
14,1.8866623502374723
15,-3.4428250542584748
16,0.855115132387823
17,-3.0696705081858228
18,2.096016354286903
2,1, 1, 1, 0,24,45.00,60.00,Tuesday
7,-1.7
8,0.0
9,0.0
10,0.0
11,0.0
12,0.0
13,0.0
14,1.859996902412593
15,-3.4971858309210059
16,0.8211850026460752
17,-3.1286186161459
18,2.0697490189559786
End of Data
 Number of Records Written=        1152
