Program Version,EnergyPlus, Version 9.5.0-de239b2e5f, YMD=2023.02.17 18:14
1,5,Environment Title[],Latitude[deg],Longitude[deg],Time Zone[],Elevation[m]
2,8,Day of Simulation[],Month[],Day of Month[],DST Indicator[1=yes 0=no],Hour[],StartMinute[],EndMinute[],DayType
3,5,Cumulative Day of Simulation[],Month[],Day of Month[],DST Indicator[1=yes 0=no],DayType  ! When Daily Report Variables Requested
4,2,Cumulative Days of Simulation[],Month[]  ! When Monthly Report Variables Requested
5,1,Cumulative Days of Simulation[] ! When Run Period Report Variables Requested
6,1,Calendar Year of Simulation[] ! When Annual Report Variables Requested
7,1,Environment,Site Outdoor Air Drybulb Temperature [C] !TimeStep
8,1,ZONE ONE,Zone Windows Total Transmitted Solar Radiation Rate [W] !TimeStep
9,1,ZN001:WALL001,Surface Outside Face Sunlit Fraction [] !TimeStep
10,1,ZN001:WALL001,Surface Outside Face Incident Solar Radiation Rate per Area [W/m2] !TimeStep
11,1,ZN001:WALL001:WIN001,Surface Outside Face Sunlit Fraction [] !TimeStep
12,1,ZN001:WALL001:WIN001,Surface Outside Face Incident Solar Radiation Rate per Area [W/m2] !TimeStep
13,1,ZN001:WALL001:WIN001,Surface Window Transmitted Solar Radiation Rate [W] !TimeStep
14,1,ZN001:WALL001,Surface Inside Face Temperature [C] !TimeStep
15,1,ZN001:WALL001,Surface Outside Face Temperature [C] !TimeStep
16,1,ZN001:WALL001:WIN001,Surface Inside Face Temperature [C] !TimeStep
17,1,ZN001:WALL001:WIN001,Surface Outside Face Temperature [C] !TimeStep
18,1,ZONE ONE,Zone Mean Air Temperature [C] !TimeStep
End of Data Dictionary
1,RUN PERIOD 1,  41.98, -87.92,  -6.00, 201.00
2,1, 1, 1, 0, 1, 0.00,15.00,Tuesday
7,-4.324999999999999
8,0.0
9,0.0
10,0.0
11,0.0
12,0.0
13,0.0
14,7.3534319952045579
15,-5.870082887014706
16,3.9931272401310027
17,-3.531970628019849
18,7.8367412464689869
2,1, 1, 1, 0, 1,15.00,30.00,Tuesday
7,-6.949999999999999
8,0.0
9,0.0
10,0.0
11,0.0
12,0.0
13,0.0
14,7.164144645864971
15,-8.337329949954471
16,3.2615331616132154
17,-5.519224906949603
18,7.727396707445053
2,1, 1, 1, 0, 1,30.00,45.00,Tuesday
7,-9.575
8,0.0
9,0.0
10,0.0
11,0.0
12,0.0
13,0.0
14,6.953331655358804
15,-10.812588699654344
16,2.5228617370136137
17,-7.512416060317662
18,7.5846839243169799
2,1, 1, 1, 0, 1,45.00,60.00,Tuesday
7,-12.2
8,0.0
9,0.0
10,0.0
11,0.0
12,0.0
13,0.0
14,6.7257027270959359
15,-13.294488629871595
16,1.7690198695414666
17,-9.51349973517381
18,7.4192415048863469
2,1, 1, 1, 0, 2, 0.00,15.00,Tuesday
7,-12.075
8,0.0
9,0.0
10,0.0
11,0.0
12,0.0
13,0.0
14,6.647274271256082
15,-13.095375950130574
16,1.7161468395505609
17,-9.364697246246579
18,7.271029260008249
2,1, 1, 1, 0, 2,15.00,30.00,Tuesday
7,-11.95
8,0.0
9,0.0
10,0.0
11,0.0
12,0.0
13,0.0
14,6.555976244403823
15,-12.918482231925779
16,1.6870292637034937
17,-9.235669921337149
18,7.1573223555569689
2,1, 1, 1, 0, 2,30.00,45.00,Tuesday
7,-11.825
8,0.0
9,0.0
10,0.0
11,0.0
12,0.0
13,0.0
14,6.483145901751861
15,-12.740396979629962
16,1.669153720650911
17,-9.115691015644928
18,7.0716677245053
2,1, 1, 1, 0, 2,45.00,60.00,Tuesday
7,-11.7
8,0.0
9,0.0
10,0.0
11,0.0
12,0.0
13,0.0
14,6.421979208426154
15,-12.562398636545863
16,1.6557954688095152
17,-8.972184778755718
18,7.0018950837792499
2,1, 1, 1, 0, 3, 0.00,15.00,Tuesday
7,-11.549999999999999
8,0.0
9,0.0
10,0.0
11,0.0
12,0.0
13,0.0
14,6.362908846691708
15,-12.435534387349155
16,1.6630394011880299
17,-8.832786391542982
18,6.938762983882787
2,1, 1, 1, 0, 3,15.00,30.00,Tuesday
7,-11.399999999999999
8,0.0
9,0.0
10,0.0
11,0.0
12,0.0
13,0.0
14,6.30693553281628
15,-12.310002765594037
16,1.6637881440390175
17,-8.672904988737287
18,6.877770272342433
2,1, 1, 1, 0, 3,30.00,45.00,Tuesday
7,-11.25
8,0.0
9,0.0
10,0.0
11,0.0
12,0.0
13,0.0
14,6.251964296319092
15,-12.18595694045739
16,1.6744300635979812
17,-8.532384787976867
18,6.8178072461650809
2,1, 1, 1, 0, 3,45.00,60.00,Tuesday
7,-11.1
8,0.0
9,0.0
10,0.0
11,0.0
12,0.0
13,0.0
14,6.19745013712301
15,-12.063443854726949
16,1.677419151645097
17,-8.372741404310603
18,6.758685406209173
2,1, 1, 1, 0, 4, 0.00,15.00,Tuesday
7,-11.1
8,0.0
9,0.0
10,0.0
11,0.0
12,0.0
13,0.0
14,6.138966796196047
15,-12.036295458161027
16,1.6124410688645413
17,-8.427322723590635
18,6.699192705432296
2,1, 1, 1, 0, 4,15.00,30.00,Tuesday
7,-11.1
8,0.0
9,0.0
10,0.0
11,0.0
12,0.0
13,0.0
14,6.0808204959966789
15,-12.010196949120763
16,1.55254724376573
17,-8.48066511631248
18,6.63891117335934
2,1, 1, 1, 0, 4,30.00,45.00,Tuesday
7,-11.1
8,0.0
9,0.0
10,0.0
11,0.0
12,0.0
13,0.0
14,6.0223521099075649
15,-11.985574400162884
16,1.4931760677578723
17,-8.533020633688694
18,6.5780774515630029
2,1, 1, 1, 0, 4,45.00,60.00,Tuesday
7,-11.1
8,0.0
9,0.0
10,0.0
11,0.0
12,0.0
13,0.0
14,5.9637304139174
15,-11.962295671743343
16,1.4340758855764194
17,-8.584165625109222
18,6.517043563482393
2,1, 1, 1, 0, 5, 0.00,15.00,Tuesday
7,-10.975
8,0.0
9,0.0
10,0.0
11,0.0
12,0.0
13,0.0
14,5.910888474794524
15,-11.840510386859819
16,1.425692886487468
17,-8.507357595507301
18,6.457323741259717
2,1, 1, 1, 0, 5,15.00,30.00,Tuesday
7,-10.85
8,0.0
9,0.0
10,0.0
11,0.0
12,0.0
13,0.0
14,5.858340705749763
15,-11.718781662904439
16,1.4140077597610344
17,-8.422472200948335
18,6.399478386993489
2,1, 1, 1, 0, 5,30.00,45.00,Tuesday
7,-10.725
8,0.0
9,0.0
10,0.0
11,0.0
12,0.0
13,0.0
14,5.806970296573497
15,-11.597026604117435
16,1.4024886890555309
17,-8.336519767597395
18,6.343205283725515
2,1, 1, 1, 0, 5,45.00,60.00,Tuesday
7,-10.6
8,0.0
9,0.0
10,0.0
11,0.0
12,0.0
13,0.0
14,5.7565650043347029
15,-11.475280175281057
16,1.391811250916703
17,-8.250218072798646
18,6.28804186517457
2,1, 1, 1, 0, 6, 0.00,15.00,Tuesday
7,-10.6
8,0.0
9,0.0
10,0.0
11,0.0
12,0.0
13,0.0
14,5.699235183774903
15,-11.476388681914602
16,1.3452699213924007
17,-8.25570359434903
18,6.232224033423853
2,1, 1, 1, 0, 6,15.00,30.00,Tuesday
7,-10.6
8,0.0
9,0.0
10,0.0
11,0.0
12,0.0
13,0.0
14,5.642557306247818
15,-11.477452499830643
16,1.3004523963237489
17,-8.267236303670757
18,6.175012910602022
2,1, 1, 1, 0, 6,30.00,45.00,Tuesday
7,-10.6
8,0.0
9,0.0
10,0.0
11,0.0
12,0.0
13,0.0
14,5.5853268108293829
15,-11.478559136872807
16,1.25591253855373
17,-8.27940385791726
18,6.116738470056603
2,1, 1, 1, 0, 6,45.00,60.00,Tuesday
7,-10.6
8,0.0
9,0.0
10,0.0
11,0.0
12,0.0
13,0.0
14,5.527795380229646
15,-11.479662691729166
16,1.2110441751364647
17,-8.291760546362866
18,6.057963850919847
2,1, 1, 1, 0, 7, 0.00,15.00,Tuesday
7,-10.6
8,0.0
9,0.0
10,0.0
11,0.0
12,0.0
13,0.0
14,5.47211987325272
15,-11.45718600267014
16,1.1532058848906673
17,-8.336204980012952
18,5.999277037949401
2,1, 1, 1, 0, 7,15.00,30.00,Tuesday
7,-10.6
8,0.0
9,0.0
10,0.0
11,0.0
12,0.0
13,0.0
14,5.41633469862451
15,-11.435878023481461
16,1.097902441359281
17,-8.38113882786456
18,5.94100160203089
2,1, 1, 1, 0, 7,30.00,45.00,Tuesday
7,-10.6
8,0.0
9,0.0
10,0.0
11,0.0
12,0.0
13,0.0
14,5.360822014626849
15,-11.415656570216408
16,1.0432782250478568
17,-8.42511118911034
18,5.88314879295713
2,1, 1, 1, 0, 7,45.00,60.00,Tuesday
7,-10.6
8,0.0
9,0.0
10,0.0
11,0.0
12,0.0
13,0.0
14,5.305600487472749
15,-11.396456437943853
16,0.9892955224798925
17,-8.46788316137554
18,5.825640790438731
2,1, 1, 1, 0, 8, 0.00,15.00,Tuesday
7,-10.45
8,0.0
9,0.0
10,0.0
11,0.0
12,0.0
13,0.0
14,5.250104055317086
15,-11.34683361250925
16,0.9755461438152224
17,-8.410707406806523
18,5.768417607047757
2,1, 1, 1, 0, 8,15.00,30.00,Tuesday
7,-10.3
8,198.49303475921466
9,1.0
10,22.819555959623899
11,1.0
12,22.819555959623899
13,198.49303475921466
14,5.3236522921169089
15,-9.672856002858325
16,1.2619401517232519
17,-8.080972796327047
18,5.731582571791995
2,1, 1, 1, 0, 8,30.00,45.00,Tuesday
7,-10.15
8,974.6027902410967
9,1.0
10,109.75755355442667
11,1.0
12,109.75755355442667
13,974.6027902410967
14,5.750886962965347
15,-3.2983840403824407
16,2.4629631554112167
17,-6.9985507338274719
18,5.7713342165535839
2,1, 1, 1, 0, 8,45.00,60.00,Tuesday
7,-10.0
8,1772.2105473427887
9,1.0
10,195.8764694434918
11,1.0
12,195.8764694434918
13,1772.2105473427887
14,6.310899875204675
15,3.1909198075637659
16,3.763698553015047
17,-5.8992610756139929
18,5.894640249848658
2,1, 1, 1, 0, 9, 0.00,15.00,Tuesday
7,-9.725
8,2567.07103636241
9,1.0
10,278.97248314719988
11,1.0
12,278.97248314719988
13,2567.07103636241
14,6.753307687658752
15,8.354429848339768
16,5.059144626155444
17,-4.931511850280685
18,6.076577518642378
2,1, 1, 1, 0, 9,15.00,30.00,Tuesday
7,-9.45
8,3404.945077593323
9,1.0
10,364.91995730569456
11,1.0
12,364.91995730569456
13,3404.945077593323
14,7.2234139019136249
15,13.434017609036616
16,6.49397532716489
17,-3.9307199455401475
18,6.3092087032227959
2,1, 1, 1, 0, 9,30.00,45.00,Tuesday
7,-9.175
8,3959.279359646866
9,1.0
10,420.35879993239237
11,1.0
12,420.35879993239237
13,3959.279359646866
14,7.570309230114647
15,16.19066732308507
16,7.4367055839866229
17,-3.3096521397761764
18,6.567873478623518
2,1, 1, 1, 0, 9,45.00,60.00,Tuesday
7,-8.9
8,4534.723640710659
9,1.0
10,478.00138373643099
11,1.0
12,478.00138373643099
13,4534.723640710659
14,7.971805797497022
15,19.185198705332995
16,8.370233670786206
17,-2.673758403286456
18,6.8408190887802819
2,1, 1, 1, 0,10, 0.00,15.00,Tuesday
7,-8.350000000000002
8,5122.325436329882
9,1.0
10,536.9185644770597
11,1.0
12,536.9185644770597
13,5122.325436329882
14,8.322844545716631
15,20.3002945370099
16,9.320365881908856
17,-2.0332391865346155
18,7.128422137349996
2,1, 1, 1, 0,10,15.00,30.00,Tuesday
7,-7.800000000000001
8,5730.227109160092
9,1.0
10,598.0969199229219
11,1.0
12,598.0969199229219
13,5730.227109160092
14,8.704997432659715
15,21.551411035886284
16,10.285633062930686
17,-1.3892916409082546
18,7.263350864432763
2,1, 1, 1, 0,10,30.00,45.00,Tuesday
7,-7.25
8,6129.017662066558
9,1.0
10,637.6133352894237
11,1.0
12,637.6133352894237
13,6129.017662066558
14,8.964482226945032
15,21.60814399196597
16,10.9694446204864
17,-0.9441513408524429
18,7.524236090712932
2,1, 1, 1, 0,10,45.00,60.00,Tuesday
7,-6.7
8,6521.934241945964
9,1.0
10,676.6412284283772
11,1.0
12,676.6412284283772
13,6521.934241945964
14,9.216344549606534
15,21.765778639746136
16,11.599659564770662
17,-0.5049749015184375
18,7.717240626128298
2,1, 1, 1, 0,11, 0.00,15.00,Tuesday
7,-6.275
8,6907.702667445452
9,1.0
10,715.0112779846514
11,1.0
12,715.0112779846514
13,6907.702667445452
14,9.619524675873255
15,23.86527663081714
16,12.322922289055896
17,0.1831439762798368
18,8.164754912261302
2,1, 1, 1, 0,11,15.00,30.00,Tuesday
7,-5.85
8,7284.390582955339
9,1.0
10,752.5077794605232
11,1.0
12,752.5077794605232
13,7284.390582955339
14,10.073968638270055
15,25.802487027884057
16,13.09265404635596
17,0.8510870739528968
18,8.584805661203756
2,1, 1, 1, 0,11,30.00,45.00,Tuesday
7,-5.425
8,7172.439532346116
9,1.0
10,742.5988714321785
11,1.0
12,742.5988714321785
13,7172.439532346116
14,10.352116980528633
15,25.65452324033338
16,13.33562401821655
17,1.1696066585524819
18,8.974475060214518
2,1, 1, 1, 0,11,45.00,60.00,Tuesday
7,-5.0
8,7012.474537249442
9,1.0
10,727.8169025450712
11,1.0
12,727.8169025450712
13,7012.474537249442
14,10.616594793680614
15,25.42627107097288
16,13.485774005464691
17,1.4408808105215485
18,9.318181613120699
2,1, 1, 1, 0,12, 0.00,15.00,Tuesday
7,-4.575
8,6737.383213522377
9,1.0
10,700.3759009170325
11,1.0
12,700.3759009170325
13,6737.383213522377
14,10.805802287578543
15,24.68431863339111
16,13.4911056668102
17,1.6532555502245714
18,9.613675513729265
2,1, 1, 1, 0,12,15.00,30.00,Tuesday
7,-4.15
8,6533.367409871273
9,1.0
10,681.6705029034473
11,1.0
12,681.6705029034473
13,6533.367409871273
14,10.981606688298675
15,24.353681322627517
16,13.551608221519019
17,1.9275087552053947
18,9.872401773761329
2,1, 1, 1, 0,12,30.00,45.00,Tuesday
7,-3.7249999999999998
8,5735.752453838288
9,1.0
10,602.01865277251
11,1.0
12,602.01865277251
13,5735.752453838288
14,10.928755851449346
15,21.326523119045846
16,12.930213246239532
17,1.7413283713692068
18,10.069479763177299
2,1, 1, 1, 0,12,45.00,60.00,Tuesday
7,-3.3
8,4684.461078610567
9,1.0
10,493.55004396206007
11,1.0
12,493.55004396206007
13,4684.461078610567
14,10.733550522866846
15,17.148584709532434
16,11.868519708732606
17,1.3032653787575442
18,10.175704203394597
2,1, 1, 1, 0,13, 0.00,15.00,Tuesday
7,-3.0249999999999996
8,3867.9417682351988
9,1.0
10,412.335026418112
11,1.0
12,412.335026418112
13,3867.9417682351988
14,10.600845281262848
15,14.305296404166933
16,11.012642296721197
17,1.0116590218106012
18,10.209271648756476
2,1, 1, 1, 0,13,15.00,30.00,Tuesday
7,-2.75
8,2832.9112038253649
9,1.0
10,305.94037763660148
11,1.0
12,305.94037763660148
13,2832.9112038253649
14,10.275876840521896
15,10.132913677181149
16,9.758873427912193
17,0.485008412372963
18,10.181851098316601
2,1, 1, 1, 0,13,30.00,45.00,Tuesday
7,-2.475
8,2586.3476478244808
9,1.0
10,281.0763483922329
11,1.0
12,281.0763483922329
13,2586.3476478244808
14,10.25317319701324
15,9.62169152460788
16,9.496872878947272
17,0.604356974474058
18,10.13438025310968
2,1, 1, 1, 0,13,45.00,60.00,Tuesday
7,-2.2
8,2344.9203514735729
9,1.0
10,256.7721209415886
11,1.0
12,256.7721209415886
13,2344.9203514735729
14,10.214230937359244
15,9.015010454912039
16,9.317792522666935
17,0.7505566925085532
18,10.094262667703913
2,1, 1, 1, 0,14, 0.00,15.00,Tuesday
7,-1.9250000000000003
8,1915.5614378460905
9,1.0
10,210.73276284570657
11,1.0
12,210.73276284570657
13,1915.5614378460905
14,10.06002051572572
15,7.468743702556935
16,8.850275171079318
17,0.691277000392688
18,10.056010342481799
2,1, 1, 1, 0,14,15.00,30.00,Tuesday
7,-1.6500000000000002
8,1701.636890462901
9,1.0
10,189.38488290342594
11,1.0
12,189.38488290342594
13,1701.636890462901
14,10.018234514708617
15,7.061968276082113
16,8.65522202669365
17,0.823050872175429
18,10.02028812355755
2,1, 1, 1, 0,14,30.00,45.00,Tuesday
7,-1.375
8,1622.8800248440066
9,1.0
10,179.3940297802914
11,1.0
12,179.3940297802914
13,1622.8800248440066
14,10.005613705511003
15,7.188845252730515
16,8.636181239110386
17,1.060757733798141
18,9.989461512184075
2,1, 1, 1, 0,14,45.00,60.00,Tuesday
7,-1.1
8,1543.2234052226525
9,1.0
10,169.43349014176136
11,1.0
12,169.43349014176136
13,1543.2234052226525
14,9.989957949682197
15,7.289175523685837
16,8.61050836990637
17,1.2960972292818838
18,9.963276107262935
2,1, 1, 1, 0,15, 0.00,15.00,Tuesday
7,-1.1
8,1624.3394505603424
9,1.0
10,178.15692317953907
11,1.0
12,178.15692317953907
13,1624.3394505603424
14,10.055758933810198
15,8.108368331070123
16,8.73378843193143
17,1.4395499379753574
18,9.946213808700918
2,1, 1, 1, 0,15,15.00,30.00,Tuesday
7,-1.1
8,1526.0223033702039
9,1.0
10,166.40516310952945
11,1.0
12,166.40516310952945
13,1526.0223033702039
14,9.998100869613549
15,7.7461226920702199
16,8.616282687034755
17,1.4005664304081052
18,9.931816866221528
2,1, 1, 1, 0,15,30.00,45.00,Tuesday
7,-1.1
8,1286.7145871122662
9,1.0
10,140.8967369711617
11,1.0
12,140.8967369711617
13,1286.7145871122662
14,9.870671726121863
15,6.540580655481527
16,8.279474560537665
17,1.2050186669872574
18,9.907786470778764
2,1, 1, 1, 0,15,45.00,60.00,Tuesday
7,-1.1
8,1058.8612402206416
9,1.0
10,116.57355796743004
11,1.0
12,116.57355796743004
13,1058.8612402206416
14,9.738248858915095
15,5.332900088402758
16,7.940395514892884
17,1.0025889694917965
18,9.864676292460454
2,1, 1, 1, 0,16, 0.00,15.00,Tuesday
7,-1.1
8,840.3726933531048
9,1.0
10,93.14939272689483
11,1.0
12,93.14939272689483
13,840.3726933531048
14,9.623734311157483
15,4.286097904431121
16,7.642993636083247
17,0.8873763486012081
18,9.802463421331371
2,1, 1, 1, 0,16,15.00,30.00,Tuesday
7,-1.1
8,521.7048907738913
9,1.0
10,57.94047897402063
11,1.0
12,57.94047897402063
13,521.7048907738913
14,9.41230457838189
15,2.164833130094501
16,7.176883960942973
17,0.6320216406727468
18,9.715140925183102
2,1, 1, 1, 0,16,30.00,45.00,Tuesday
7,-1.1
8,404.4917082756416
9,1.0
10,45.38251793443488
11,1.0
12,45.38251793443488
13,404.4917082756416
14,9.328950466591837
15,1.5585585723199238
16,6.98047161359068
17,0.6129581583774098
18,9.61675048164239
2,1, 1, 1, 0,16,45.00,60.00,Tuesday
7,-1.1
8,282.362010079345
9,1.0
10,32.02625108222755
11,1.0
12,32.02625108222755
13,282.362010079345
14,9.204721954677482
15,0.6996780975535667
16,6.798623665185119
17,0.5928673735594998
18,9.519803814038845
2,1, 1, 1, 0,17, 0.00,15.00,Tuesday
7,-1.1
8,154.8751670521773
9,1.0
10,17.762198626050539
11,1.0
12,17.762198626050539
13,154.8751670521773
14,9.05597636477255
15,-0.54545140736695
16,6.558339282548445
17,0.46742763625604769
18,9.422609236588614
2,1, 1, 1, 0,17,15.00,30.00,Tuesday
7,-1.1
8,0.0
9,0.0
10,0.0
11,0.0
12,0.0
13,0.0
14,8.855916137214149
15,-2.3799011126214246
16,6.228397968103877
17,0.20242662956638925
18,9.311859450977393
2,1, 1, 1, 0,17,30.00,45.00,Tuesday
7,-1.1
8,0.0
9,0.0
10,0.0
11,0.0
12,0.0
13,0.0
14,8.794107863868824
15,-2.5128136002016117
16,6.160559385609076
17,0.24787900686396825
18,9.20355018474648
2,1, 1, 1, 0,17,45.00,60.00,Tuesday
7,-1.1
8,0.0
9,0.0
10,0.0
11,0.0
12,0.0
13,0.0
14,8.7155350035054
15,-2.6988082803679247
16,6.12888407728758
17,0.30801736615103439
18,9.112273702521652
2,1, 1, 1, 0,18, 0.00,15.00,Tuesday
7,-1.25
8,0.0
9,0.0
10,0.0
11,0.0
12,0.0
13,0.0
14,8.648314115915336
15,-2.8473263856938995
16,6.0272538615899979
17,0.17395997135218978
18,9.038140130029669
2,1, 1, 1, 0,18,15.00,30.00,Tuesday
7,-1.4
8,0.0
9,0.0
10,0.0
11,0.0
12,0.0
13,0.0
14,8.58659728626868
15,-2.9998386883301828
16,5.940974691445376
17,0.04545986984913952
18,8.975375987479401
2,1, 1, 1, 0,18,30.00,45.00,Tuesday
7,-1.5499999999999999
8,0.0
9,0.0
10,0.0
11,0.0
12,0.0
13,0.0
14,8.528965351041779
15,-3.151971894726022
16,5.8593179708306029
17,-0.08207938554869543
18,8.918477108947279
2,1, 1, 1, 0,18,45.00,60.00,Tuesday
7,-1.7
8,0.0
9,0.0
10,0.0
11,0.0
12,0.0
13,0.0
14,8.4731540569734
15,-3.3042761031406155
16,5.780346017754994
17,-0.20885859505989402
18,8.864177777088765
2,1, 1, 1, 0,19, 0.00,15.00,Tuesday
7,-1.825
8,0.0
9,0.0
10,0.0
11,0.0
12,0.0
13,0.0
14,8.440968805537992
15,-3.1648431918866084
16,5.668524042951617
17,-0.42055966571820138
18,8.814149114995262
2,1, 1, 1, 0,19,15.00,30.00,Tuesday
7,-1.9500000000000002
8,0.0
9,0.0
10,0.0
11,0.0
12,0.0
13,0.0
14,8.407313012787095
15,-3.1058070455771857
16,5.573953136477712
17,-0.6185528081437042
18,8.770153186952437
2,1, 1, 1, 0,19,30.00,45.00,Tuesday
7,-2.075
8,0.0
9,0.0
10,0.0
11,0.0
12,0.0
13,0.0
14,8.369547982522536
15,-3.1817666992692459
16,5.5099314640855259
17,-0.7474939088386918
18,8.731119309722257
2,1, 1, 1, 0,19,45.00,60.00,Tuesday
7,-2.2
8,0.0
9,0.0
10,0.0
11,0.0
12,0.0
13,0.0
14,8.333212441657972
15,-3.166298554084189
16,5.418942581850274
17,-0.9356365408617648
18,8.693842633905908
2,1, 1, 1, 0,20, 0.00,15.00,Tuesday
7,-1.9250000000000003
8,0.0
9,0.0
10,0.0
11,0.0
12,0.0
13,0.0
14,8.315153490486895
15,-2.8667947324334208
16,5.472187721400019
17,-0.7665073449178408
18,8.659694973969174
2,1, 1, 1, 0,20,15.00,30.00,Tuesday
7,-1.6500000000000002
8,0.0
9,0.0
10,0.0
11,0.0
12,0.0
13,0.0
14,8.296435917135473
15,-2.5701859331715766
16,5.511522502133005
17,-0.5666930583668659
18,8.629359679085269
2,1, 1, 1, 0,20,30.00,45.00,Tuesday
7,-1.375
8,0.0
9,0.0
10,0.0
11,0.0
12,0.0
13,0.0
14,8.279912928398057
15,-2.2747352468241299
16,5.556549463192937
17,-0.3722775491335142
18,8.60227828292401
2,1, 1, 1, 0,20,45.00,60.00,Tuesday
7,-1.1
8,0.0
9,0.0
10,0.0
11,0.0
12,0.0
13,0.0
14,8.265147419675199
15,-1.9804801720547083
16,5.604328118759042
17,-0.1752191231508391
18,8.577572163733361
2,1, 1, 1, 0,21, 0.00,15.00,Tuesday
7,-1.25
8,0.0
9,0.0
10,0.0
11,0.0
12,0.0
13,0.0
14,8.210907868321362
15,-2.2548186553125468
16,5.574653527721466
17,-0.19894444672638657
18,8.548393181035165
2,1, 1, 1, 0,21,15.00,30.00,Tuesday
7,-1.4
8,0.0
9,0.0
10,0.0
11,0.0
12,0.0
13,0.0
14,8.157392793017883
15,-2.467771158569117
16,5.520318924178696
17,-0.26706102865136929
18,8.509991552525328
2,1, 1, 1, 0,21,30.00,45.00,Tuesday
7,-1.5499999999999999
8,0.0
9,0.0
10,0.0
11,0.0
12,0.0
13,0.0
14,8.091191881788252
15,-2.8030490619019825
16,5.4881508495409438
17,-0.27540102175987615
18,8.461865776463832
2,1, 1, 1, 0,21,45.00,60.00,Tuesday
7,-1.7
8,0.0
9,0.0
10,0.0
11,0.0
12,0.0
13,0.0
14,8.01988550610928
15,-3.2445200224573167
16,5.462979687433233
17,-0.2611984266875993
18,8.406605966006323
2,1, 1, 1, 0,22, 0.00,15.00,Tuesday
7,-1.5499999999999999
8,0.0
9,0.0
10,0.0
11,0.0
12,0.0
13,0.0
14,8.013226353963376
15,-2.7692839590824276
16,5.401257897481742
17,-0.2962727609327658
18,8.356766781304247
2,1, 1, 1, 0,22,15.00,30.00,Tuesday
7,-1.4
8,0.0
9,0.0
10,0.0
11,0.0
12,0.0
13,0.0
14,7.997125352916985
15,-2.4475272520337496
16,5.382995958828474
17,-0.2996740640920166
18,8.319279645440393
2,1, 1, 1, 0,22,30.00,45.00,Tuesday
7,-1.25
8,0.0
9,0.0
10,0.0
11,0.0
12,0.0
13,0.0
14,7.980432216519337
15,-2.231219695744673
16,5.387969659512748
17,-0.23755854881471806
18,8.292008443172178
2,1, 1, 1, 0,22,45.00,60.00,Tuesday
7,-1.1
8,0.0
9,0.0
10,0.0
11,0.0
12,0.0
13,0.0
14,7.967449604437662
15,-1.9554202866236057
16,5.382840947588761
17,-0.21636151244717895
18,8.269763843274998
2,1, 1, 1, 0,23, 0.00,15.00,Tuesday
7,-1.25
8,0.0
9,0.0
10,0.0
11,0.0
12,0.0
13,0.0
14,7.911820019710991
15,-2.258736442856433
16,5.267912191733103
17,-0.475311228689975
18,8.241907991469099
2,1, 1, 1, 0,23,15.00,30.00,Tuesday
7,-1.4
8,0.0
9,0.0
10,0.0
11,0.0
12,0.0
13,0.0
14,7.858409992749778
15,-2.563464564644803
16,5.145574265980372
17,-0.7520591520573703
18,8.203530112743554
2,1, 1, 1, 0,23,30.00,45.00,Tuesday
7,-1.5499999999999999
8,0.0
9,0.0
10,0.0
11,0.0
12,0.0
13,0.0
14,7.800068271455394
15,-2.868843191958236
16,5.021438364613346
17,-1.0302573326429184
18,8.156092509426357
2,1, 1, 1, 0,23,45.00,60.00,Tuesday
7,-1.7
8,0.0
9,0.0
10,0.0
11,0.0
12,0.0
13,0.0
14,7.7377523314380849
15,-3.174565644392849
16,4.893318912241625
17,-1.3102391486988836
18,8.102767282750135
2,1, 1, 1, 0,24, 0.00,15.00,Tuesday
7,-1.7
8,0.0
9,0.0
10,0.0
11,0.0
12,0.0
13,0.0
14,7.691373253125377
15,-3.2288180570998645
16,4.836997108045011
17,-1.3760665659211214
18,8.049427937003255
2,1, 1, 1, 0,24,15.00,30.00,Tuesday
7,-1.7
8,0.0
9,0.0
10,0.0
11,0.0
12,0.0
13,0.0
14,7.642996854382528
15,-3.2836285529474718
16,4.783805912445473
17,-1.4384959967226224
18,7.999024133467511
2,1, 1, 1, 0,24,30.00,45.00,Tuesday
7,-1.7
8,0.0
9,0.0
10,0.0
11,0.0
12,0.0
13,0.0
14,7.595880710546418
15,-3.338328518425695
16,4.7304784668632469
17,-1.5009545644705896
18,7.951356325427395
2,1, 1, 1, 0,24,45.00,60.00,Tuesday
7,-1.7
8,0.0
9,0.0
10,0.0
11,0.0
12,0.0
13,0.0
14,7.54967206342793
15,-3.3930325277038024
16,4.678045497860012
17,-1.563261752033668
18,7.905253966087395
End of Data
 Number of Records Written=        1152
