Program Version,EnergyPlus, Version 9.5.0-de239b2e5f, YMD=2023.02.16 21:09
1,5,Environment Title[],Latitude[deg],Longitude[deg],Time Zone[],Elevation[m]
2,8,Day of Simulation[],Month[],Day of Month[],DST Indicator[1=yes 0=no],Hour[],StartMinute[],EndMinute[],DayType
3,5,Cumulative Day of Simulation[],Month[],Day of Month[],DST Indicator[1=yes 0=no],DayType  ! When Daily Report Variables Requested
4,2,Cumulative Days of Simulation[],Month[]  ! When Monthly Report Variables Requested
5,1,Cumulative Days of Simulation[] ! When Run Period Report Variables Requested
6,1,Calendar Year of Simulation[] ! When Annual Report Variables Requested
7,1,Environment,Site Outdoor Air Drybulb Temperature [C] !TimeStep
8,1,ZONE ONE,Zone Windows Total Transmitted Solar Radiation Rate [W] !TimeStep
9,1,ZN001:WALL001,Surface Outside Face Sunlit Fraction [] !TimeStep
10,1,ZN001:WALL001,Surface Outside Face Incident Solar Radiation Rate per Area [W/m2] !TimeStep
11,1,ZN001:WALL001:WIN001,Surface Outside Face Sunlit Fraction [] !TimeStep
12,1,ZN001:WALL001:WIN001,Surface Outside Face Incident Solar Radiation Rate per Area [W/m2] !TimeStep
13,1,ZN001:WALL001:WIN001,Surface Window Transmitted Solar Radiation Rate [W] !TimeStep
14,1,ZN001:WALL001,Surface Inside Face Temperature [C] !TimeStep
15,1,ZN001:WALL001,Surface Outside Face Temperature [C] !TimeStep
16,1,ZN001:WALL001:WIN001,Surface Inside Face Temperature [C] !TimeStep
17,1,ZN001:WALL001:WIN001,Surface Outside Face Temperature [C] !TimeStep
18,1,ZONE ONE,Zone Mean Air Temperature [C] !TimeStep
End of Data Dictionary
1,RUN PERIOD 1,  41.98, -87.92,  -6.00, 201.00
2,1, 1, 1, 0, 1, 0.00,15.00,Tuesday
7,-4.324999999999999
8,0.0
9,0.0
10,0.0
11,0.0
12,0.0
13,0.0
14,6.825251325004278
15,-5.879709708632103
16,3.0282884576321864
17,-3.2210618234755659
18,7.287114105566657
2,1, 1, 1, 0, 1,15.00,30.00,Tuesday
7,-6.949999999999999
8,0.0
9,0.0
10,0.0
11,0.0
12,0.0
13,0.0
14,6.633589733836334
15,-8.347101331236976
16,2.2005620018762217
17,-5.135914746303001
18,7.174738479852066
2,1, 1, 1, 0, 1,30.00,45.00,Tuesday
7,-9.575
8,0.0
9,0.0
10,0.0
11,0.0
12,0.0
13,0.0
14,6.419424863482942
15,-10.822573327414905
16,1.3657272285485647
17,-7.056765966934449
18,7.027406282006555
2,1, 1, 1, 0, 1,45.00,60.00,Tuesday
7,-12.2
8,0.0
9,0.0
10,0.0
11,0.0
12,0.0
13,0.0
14,6.1877143746623439
15,-13.3046866550254
16,0.5158095081286547
17,-8.986013904798881
18,6.8563227438119649
2,1, 1, 1, 0, 2, 0.00,15.00,Tuesday
7,-12.075
8,0.0
9,0.0
10,0.0
11,0.0
12,0.0
13,0.0
14,6.107225414478756
15,-13.105721452372368
16,0.47884855868528578
17,-8.848738460540517
18,6.703669712994036
2,1, 1, 1, 0, 2,15.00,30.00,Tuesday
7,-11.95
8,0.0
9,0.0
10,0.0
11,0.0
12,0.0
13,0.0
14,6.01404057701727
15,-12.928849775994698
16,0.46338982069971737
17,-8.739645936172224
18,6.587402469363877
2,1, 1, 1, 0, 2,30.00,45.00,Tuesday
7,-11.825
8,0.0
9,0.0
10,0.0
11,0.0
12,0.0
13,0.0
14,5.940093861599865
15,-12.750747118085388
16,0.4513404906459755
17,-8.620288608722604
18,6.500486707730025
2,1, 1, 1, 0, 2,45.00,60.00,Tuesday
7,-11.7
8,0.0
9,0.0
10,0.0
11,0.0
12,0.0
13,0.0
14,5.87841943619237
15,-12.572735541761063
16,0.45140284090052776
17,-8.495462349442392
18,6.430188149967166
2,1, 1, 1, 0, 3, 0.00,15.00,Tuesday
7,-11.549999999999999
8,0.0
9,0.0
10,0.0
11,0.0
12,0.0
13,0.0
14,5.818921000206347
15,-12.446150337929567
16,0.46275621156257787
17,-8.338535306007487
18,6.366750170106055
2,1, 1, 1, 0, 3,15.00,30.00,Tuesday
7,-11.399999999999999
8,0.0
9,0.0
10,0.0
11,0.0
12,0.0
13,0.0
14,5.762855411675927
15,-12.32091692078766
16,0.4845726441883471
17,-8.200795904927304
18,6.30572112640941
2,1, 1, 1, 0, 3,30.00,45.00,Tuesday
7,-11.25
8,0.0
9,0.0
10,0.0
11,0.0
12,0.0
13,0.0
14,5.707736575417226
15,-12.197176893701583
16,0.5047447167933115
17,-8.054082744826588
18,6.2458550231582949
2,1, 1, 1, 0, 3,45.00,60.00,Tuesday
7,-11.1
8,0.0
9,0.0
10,0.0
11,0.0
12,0.0
13,0.0
14,5.6532708279990599
15,-12.074988211491517
16,0.5247908357048345
17,-7.90660433889434
18,6.186980422570133
2,1, 1, 1, 0, 4, 0.00,15.00,Tuesday
7,-11.1
8,0.0
9,0.0
10,0.0
11,0.0
12,0.0
13,0.0
14,5.594569177289267
15,-12.047509067558446
16,0.4523585165846953
17,-7.95824328312051
18,6.127514551488657
2,1, 1, 1, 0, 4,15.00,30.00,Tuesday
7,-11.1
8,0.0
9,0.0
10,0.0
11,0.0
12,0.0
13,0.0
14,5.536194239660342
15,-12.021103736628799
16,0.38939037777009846
17,-8.016709295877604
18,6.066965678053501
2,1, 1, 1, 0, 4,30.00,45.00,Tuesday
7,-11.1
8,0.0
9,0.0
10,0.0
11,0.0
12,0.0
13,0.0
14,5.477374968236914
15,-11.996191839050452
16,0.32778744433858267
17,-8.0751732113348
18,6.0056796863561259
2,1, 1, 1, 0, 4,45.00,60.00,Tuesday
7,-11.1
8,0.0
9,0.0
10,0.0
11,0.0
12,0.0
13,0.0
14,5.418330979912578
15,-11.972637444574325
16,0.2665858373380843
17,-8.132580527391497
18,5.9441181211822748
2,1, 1, 1, 0, 5, 0.00,15.00,Tuesday
7,-10.975
8,0.0
9,0.0
10,0.0
11,0.0
12,0.0
13,0.0
14,5.365199116408108
15,-11.85085098631228
16,0.26575535217830295
17,-8.061349827764616
18,5.883991432685851
2,1, 1, 1, 0, 5,15.00,30.00,Tuesday
7,-10.85
8,0.0
9,0.0
10,0.0
11,0.0
12,0.0
13,0.0
14,5.3124099561907009
15,-11.729120224313674
16,0.26124477574427376
17,-7.9823624936327068
18,5.825916157806473
2,1, 1, 1, 0, 5,30.00,45.00,Tuesday
7,-10.725
8,0.0
9,0.0
10,0.0
11,0.0
12,0.0
13,0.0
14,5.260882168952129
15,-11.607360919076817
16,0.2568066604972046
17,-7.902174795381825
18,5.769548246493039
2,1, 1, 1, 0, 5,45.00,60.00,Tuesday
7,-10.6
8,0.0
9,0.0
10,0.0
11,0.0
12,0.0
13,0.0
14,5.21038382626977
15,-11.48560974823198
16,0.2532050191633175
17,-7.821550519695961
18,5.714369181695669
2,1, 1, 1, 0, 6, 0.00,15.00,Tuesday
7,-10.6
8,0.0
9,0.0
10,0.0
11,0.0
12,0.0
13,0.0
14,5.152871649140508
15,-11.486726076409733
16,0.20860170861283224
17,-7.829293797462242
18,5.658506729713882
2,1, 1, 1, 0, 6,15.00,30.00,Tuesday
7,-10.6
8,0.0
9,0.0
10,0.0
11,0.0
12,0.0
13,0.0
14,5.0960151926965608
15,-11.487793821930744
16,0.16590794174015856
17,-7.842660061597712
18,5.601184350057405
2,1, 1, 1, 0, 6,30.00,45.00,Tuesday
7,-10.6
8,0.0
9,0.0
10,0.0
11,0.0
12,0.0
13,0.0
14,5.038587262173216
15,-11.48890535114106
16,0.12354351345265968
17,-7.856699555216437
18,5.542748704350281
2,1, 1, 1, 0, 6,45.00,60.00,Tuesday
7,-10.6
8,0.0
9,0.0
10,0.0
11,0.0
12,0.0
13,0.0
14,4.9808465877313
15,-11.490013701821973
16,0.08086761408253551
17,-7.870965307618121
18,5.483790920945436
2,1, 1, 1, 0, 7, 0.00,15.00,Tuesday
7,-10.6
8,0.0
9,0.0
10,0.0
11,0.0
12,0.0
13,0.0
14,4.924933256640738
15,-11.4672680221962
16,0.02105945735570458
17,-7.921192090415843
18,5.42485611675482
2,1, 1, 1, 0, 7,15.00,30.00,Tuesday
7,-10.6
8,0.0
9,0.0
10,0.0
11,0.0
12,0.0
13,0.0
14,4.868888275218926
15,-11.445707382958812
16,-0.03595204356497561
17,-7.971938068329223
18,5.366260417698408
2,1, 1, 1, 0, 7,30.00,45.00,Tuesday
7,-10.6
8,0.0
9,0.0
10,0.0
11,0.0
12,0.0
13,0.0
14,4.8130846222743959
15,-11.425245919882637
16,-0.0921553103527799
17,-8.021719859045675
18,5.308037955251637
2,1, 1, 1, 0, 7,45.00,60.00,Tuesday
7,-10.6
8,0.0
9,0.0
10,0.0
11,0.0
12,0.0
13,0.0
14,4.757552559306695
15,-11.40581724697761
16,-0.1476393855004403
17,-8.07024965434266
18,5.250135936210364
2,1, 1, 1, 0, 8, 0.00,15.00,Tuesday
7,-10.45
8,0.0
9,0.0
10,0.0
11,0.0
12,0.0
13,0.0
14,4.701845393596645
15,-11.35643636601388
16,-0.1525838275094884
17,-8.012406533452293
18,5.192660864285802
2,1, 1, 1, 0, 8,15.00,30.00,Tuesday
7,-10.3
8,198.49303475921466
9,1.0
10,22.819555959623899
11,1.0
12,22.819555959623899
13,198.49303475921466
14,4.7762747606895659
15,-9.682469464206479
16,0.14743423016528824
17,-7.672046385993269
18,5.155808587400411
2,1, 1, 1, 0, 8,30.00,45.00,Tuesday
7,-10.15
8,974.6027902410967
9,1.0
10,109.75755355442667
11,1.0
12,109.75755355442667
13,974.6027902410967
14,5.20810813217682
15,-3.3088973489305255
16,1.3747862385946519
17,-6.549877805799156
18,5.195855805439703
2,1, 1, 1, 0, 8,45.00,60.00,Tuesday
7,-10.0
8,1772.2105473427887
9,1.0
10,195.8764694434918
11,1.0
12,195.8764694434918
13,1772.2105473427887
14,5.78377861640363
15,3.188885755317396
16,2.6926160092318698
17,-5.408288102841766
18,5.319057395392056
2,1, 1, 1, 0, 9, 0.00,15.00,Tuesday
7,-9.725
8,2567.07103636241
9,1.0
10,278.97248314719988
11,1.0
12,278.97248314719988
13,2567.07103636241
14,6.201906287481588
15,8.343598495933499
16,3.9846973761019628
17,-4.404749295421311
18,5.50360358521968
2,1, 1, 1, 0, 9,15.00,30.00,Tuesday
7,-9.45
8,3404.945077593323
9,1.0
10,364.91995730569456
11,1.0
12,364.91995730569456
13,3404.945077593323
14,6.681251635478898
15,13.425958366348823
16,5.382578872492161
17,-3.3712677832069177
18,5.739581437143079
2,1, 1, 1, 0, 9,30.00,45.00,Tuesday
7,-9.175
8,3959.279359646866
9,1.0
10,420.35879993239237
11,1.0
12,420.35879993239237
13,3959.279359646866
14,7.028517213966079
15,16.18267889585619
16,6.364096773664414
17,-2.706350678681474
18,6.000137133540768
2,1, 1, 1, 0, 9,45.00,60.00,Tuesday
7,-8.9
8,4534.723640710659
9,1.0
10,478.00138373643099
11,1.0
12,478.00138373643099
13,4534.723640710659
14,7.431410202155875
15,19.177528688735774
16,7.315814285658917
17,-2.040184394701896
18,6.273351010010789
2,1, 1, 1, 0,10, 0.00,15.00,Tuesday
7,-8.350000000000002
8,5122.325436329882
9,1.0
10,536.9185644770597
11,1.0
12,536.9185644770597
13,5122.325436329882
14,7.782407884079184
15,20.293282103031009
16,8.26500562793899
17,-1.3970798376371363
18,6.560177796726725
2,1, 1, 1, 0,10,15.00,30.00,Tuesday
7,-7.800000000000001
8,5730.227109160092
9,1.0
10,598.0969199229219
11,1.0
12,598.0969199229219
13,5730.227109160092
14,8.164159208994465
15,21.544881976847479
16,9.227482048355455
17,-0.7510646222567061
18,6.694544288559139
2,1, 1, 1, 0,10,30.00,45.00,Tuesday
7,-7.25
8,6129.017662066558
9,1.0
10,637.6133352894237
11,1.0
12,637.6133352894237
13,6129.017662066558
14,8.422840596007177
15,21.60206953719156
16,9.901459011336442
17,-0.3155246811815573
18,6.954293123541836
2,1, 1, 1, 0,10,45.00,60.00,Tuesday
7,-6.7
8,6521.934241945964
9,1.0
10,676.6412284283772
11,1.0
12,676.6412284283772
13,6521.934241945964
14,8.673887587412756
15,21.76007540635588
16,10.52609699962602
17,0.11292484024278338
18,7.146566520577974
2,1, 1, 1, 0,11, 0.00,15.00,Tuesday
7,-6.275
8,6907.702667445452
9,1.0
10,715.0112779846514
11,1.0
12,715.0112779846514
13,6907.702667445452
14,9.076928944686588
15,23.859541335374734
16,11.270801206432794
17,0.7984240655453618
18,7.592195092053694
2,1, 1, 1, 0,11,15.00,30.00,Tuesday
7,-5.85
8,7284.390582955339
9,1.0
10,752.5077794605232
11,1.0
12,752.5077794605232
13,7284.390582955339
14,9.53098122177748
15,25.796784258732094
16,12.050025812342824
17,1.494221945428535
18,8.010740176676717
2,1, 1, 1, 0,11,30.00,45.00,Tuesday
7,-5.425
8,7172.439532346116
9,1.0
10,742.5988714321785
11,1.0
12,742.5988714321785
13,7172.439532346116
14,9.808778807007334
15,25.64887846730392
16,12.292018332070484
17,1.805270178289561
18,8.399818868582316
2,1, 1, 1, 0,11,45.00,60.00,Tuesday
7,-5.0
8,7012.474537249442
9,1.0
10,727.8169025450712
11,1.0
12,727.8169025450712
13,7012.474537249442
14,10.073347040704907
15,25.420623433798605
16,12.443595988284415
17,2.0660542524277618
18,8.7433543915037
2,1, 1, 1, 0,12, 0.00,15.00,Tuesday
7,-4.575
8,6737.383213522377
9,1.0
10,700.3759009170325
11,1.0
12,700.3759009170325
13,6737.383213522377
14,10.262692631610586
15,24.67867193973021
16,12.451457067905836
17,2.2607245531964965
18,9.038914107868007
2,1, 1, 1, 0,12,15.00,30.00,Tuesday
7,-4.15
8,6533.367409871273
9,1.0
10,681.6705029034473
11,1.0
12,681.6705029034473
13,6533.367409871273
14,10.438429816890267
15,24.34801817922737
16,12.519783364797945
17,2.519687137872893
18,9.297862092986808
2,1, 1, 1, 0,12,30.00,45.00,Tuesday
7,-3.7249999999999998
8,5735.752453838288
9,1.0
10,602.01865277251
11,1.0
12,602.01865277251
13,5735.752453838288
14,10.385760677372066
15,21.320877125129159
16,11.889861416154816
17,2.289820813410188
18,9.495200024775638
2,1, 1, 1, 0,12,45.00,60.00,Tuesday
7,-3.3
8,4684.461078610567
9,1.0
10,493.55004396206007
11,1.0
12,493.55004396206007
13,4684.461078610567
14,10.19114190917013
15,17.142908847019265
16,10.816086827957179
17,1.7911862952749403
18,9.601772902830089
2,1, 1, 1, 0,13, 0.00,15.00,Tuesday
7,-3.0249999999999996
8,3867.9417682351988
9,1.0
10,412.335026418112
11,1.0
12,412.335026418112
13,3867.9417682351988
14,10.059232716540928
15,14.299502241963438
16,9.950998274469726
17,1.451500577125671
18,9.636137187460808
2,1, 1, 1, 0,13,15.00,30.00,Tuesday
7,-2.75
8,2832.9112038253649
9,1.0
10,305.94037763660148
11,1.0
12,305.94037763660148
13,2832.9112038253649
14,9.736282516480373
15,10.1271321725469
16,8.712022380207259
17,0.8683151318825821
18,9.609084037287233
2,1, 1, 1, 0,13,30.00,45.00,Tuesday
7,-2.475
8,2586.3476478244808
9,1.0
10,281.0763483922329
11,1.0
12,281.0763483922329
13,2586.3476478244808
14,9.716370603854588
15,9.615828379006845
16,8.480753752832812
17,0.9700136137360005
18,9.561577092596119
2,1, 1, 1, 0,13,45.00,60.00,Tuesday
7,-2.2
8,2344.9203514735729
9,1.0
10,256.7721209415886
11,1.0
12,256.7721209415886
13,2344.9203514735729
14,9.676653313434736
15,9.00894124576652
16,8.322522354197816
17,1.0991924196719083
18,9.521389702932538
2,1, 1, 1, 0,14, 0.00,15.00,Tuesday
7,-1.9250000000000003
8,1915.5614378460905
9,1.0
10,210.73276284570657
11,1.0
12,210.73276284570657
13,1915.5614378460905
14,9.523999127272847
15,7.462696880041248
16,7.877097801198261
17,1.0170665253970129
18,9.482578885552801
2,1, 1, 1, 0,14,15.00,30.00,Tuesday
7,-1.6500000000000002
8,1701.636890462901
9,1.0
10,189.38488290342594
11,1.0
12,189.38488290342594
13,1701.636890462901
14,9.48579036171296
15,7.0580405242287649
16,7.704917578739753
17,1.135698911711927
18,9.445756108179462
2,1, 1, 1, 0,14,30.00,45.00,Tuesday
7,-1.375
8,1622.8800248440066
9,1.0
10,179.3940297802914
11,1.0
12,179.3940297802914
13,1622.8800248440066
14,9.472876864292692
15,7.181884481767884
16,7.706513419277144
17,1.3664671392360788
18,9.41408876890336
2,1, 1, 1, 0,14,45.00,60.00,Tuesday
7,-1.1
8,1543.2234052226525
9,1.0
10,169.43349014176136
11,1.0
12,169.43349014176136
13,1543.2234052226525
14,9.456133798347084
15,7.28190330713165
16,7.701728955923386
17,1.5940394014387494
18,9.387562222054149
2,1, 1, 1, 0,15, 0.00,15.00,Tuesday
7,-1.1
8,1624.3394505603424
9,1.0
10,178.15692317953907
11,1.0
12,178.15692317953907
13,1624.3394505603424
14,9.519372056708859
15,8.099882103174869
16,7.831494628344103
17,1.7459421233281774
18,9.37052873661776
2,1, 1, 1, 0,15,15.00,30.00,Tuesday
7,-1.1
8,1526.0223033702039
9,1.0
10,166.40516310952945
11,1.0
12,166.40516310952945
13,1526.0223033702039
14,9.462781031880981
15,7.738571964374789
16,7.719064753525004
17,1.7065825023810249
18,9.35620398855807
2,1, 1, 1, 0,15,30.00,45.00,Tuesday
7,-1.1
8,1286.7145871122662
9,1.0
10,140.8967369711617
11,1.0
12,140.8967369711617
13,1286.7145871122662
14,9.337044532401443
15,6.53336666278701
16,7.387744998667017
17,1.5030385023143254
18,9.332205327493082
2,1, 1, 1, 0,15,45.00,60.00,Tuesday
7,-1.1
8,1058.8612402206416
9,1.0
10,116.57355796743004
11,1.0
12,116.57355796743004
13,1058.8612402206416
14,9.1959153110458
15,5.3195875079740759
16,7.053225863471084
17,1.2931755962781609
18,9.29120853705223
2,1, 1, 1, 0,16, 0.00,15.00,Tuesday
7,-1.1
8,840.3726933531048
9,1.0
10,93.14939272689483
11,1.0
12,93.14939272689483
13,840.3726933531048
14,9.08367495795749
15,4.276938407243085
16,6.765495318577678
17,1.1711768398713503
18,9.232002610816722
2,1, 1, 1, 0,16,15.00,30.00,Tuesday
7,-1.1
8,521.7048907738913
9,1.0
10,57.94047897402063
11,1.0
12,57.94047897402063
13,521.7048907738913
14,8.870891914284446
15,2.154323705612371
16,6.306974019269319
17,0.9036433975190903
18,9.147780009488886
2,1, 1, 1, 0,16,30.00,45.00,Tuesday
7,-1.1
8,404.4917082756416
9,1.0
10,45.38251793443488
11,1.0
12,45.38251793443488
13,404.4917082756416
14,8.789365196884657
15,1.5475790200199889
16,6.124554874638648
17,0.8819769370967379
18,9.051931185153986
2,1, 1, 1, 0,16,45.00,60.00,Tuesday
7,-1.1
8,282.362010079345
9,1.0
10,32.02625108222755
11,1.0
12,32.02625108222755
13,282.362010079345
14,8.665847726161895
15,0.6874880106069038
16,5.954308219396012
17,0.8586429056002771
18,8.956942056222405
2,1, 1, 1, 0,17, 0.00,15.00,Tuesday
7,-1.1
8,154.8751670521773
9,1.0
10,17.762198626050539
11,1.0
12,17.762198626050539
13,154.8751670521773
14,8.517388069037164
15,-0.5591431631907635
16,5.720533272454816
17,0.7317968117836244
18,8.861276936431614
2,1, 1, 1, 0,17,15.00,30.00,Tuesday
7,-1.1
8,0.0
9,0.0
10,0.0
11,0.0
12,0.0
13,0.0
14,8.316978324749189
15,-2.3943557696915378
16,5.387292133723349
17,0.4576369569469989
18,8.75167463711653
2,1, 1, 1, 0,17,30.00,45.00,Tuesday
7,-1.1
8,0.0
9,0.0
10,0.0
11,0.0
12,0.0
13,0.0
14,8.256307516440222
15,-2.5278906419702058
16,5.334162823535792
17,0.5066543033952939
18,8.644335567133986
2,1, 1, 1, 0,17,45.00,60.00,Tuesday
7,-1.1
8,0.0
9,0.0
10,0.0
11,0.0
12,0.0
13,0.0
14,8.178526759979207
15,-2.7151647274491106
16,5.312744566908918
17,0.5695213456716033
18,8.553977470226052
2,1, 1, 1, 0,18, 0.00,15.00,Tuesday
7,-1.25
8,0.0
9,0.0
10,0.0
11,0.0
12,0.0
13,0.0
14,8.111951087767159
15,-2.863528050358522
16,5.206815682614604
17,0.4390647478355163
18,8.48058459569209
2,1, 1, 1, 0,18,15.00,30.00,Tuesday
7,-1.4
8,0.0
9,0.0
10,0.0
11,0.0
12,0.0
13,0.0
14,8.05078730415679
15,-3.01606004481053
16,5.117541823739259
17,0.31403370598729909
18,8.418364836265575
2,1, 1, 1, 0,18,30.00,45.00,Tuesday
7,-1.5499999999999999
8,0.0
9,0.0
10,0.0
11,0.0
12,0.0
13,0.0
14,7.993601313667336
15,-3.168196559969488
16,5.032811264814086
17,0.18993211025383517
18,8.361873920545119
2,1, 1, 1, 0,18,45.00,60.00,Tuesday
7,-1.7
8,0.0
9,0.0
10,0.0
11,0.0
12,0.0
13,0.0
14,7.938166313956444
15,-3.320506740577524
16,4.950626157430065
17,0.06664960071475434
18,8.307907424328962
2,1, 1, 1, 0,19, 0.00,15.00,Tuesday
7,-1.825
8,0.0
9,0.0
10,0.0
11,0.0
12,0.0
13,0.0
14,7.90548520042008
15,-3.1791925100117508
16,4.825143843393448
17,-0.15065008181244367
18,8.257899757185174
2,1, 1, 1, 0,19,15.00,30.00,Tuesday
7,-1.9500000000000002
8,0.0
9,0.0
10,0.0
11,0.0
12,0.0
13,0.0
14,7.873154567511672
15,-3.118480561095469
16,4.716749088245706
17,-0.35624284497555439
18,8.213753257096022
2,1, 1, 1, 0,19,30.00,45.00,Tuesday
7,-2.075
8,0.0
9,0.0
10,0.0
11,0.0
12,0.0
13,0.0
14,7.8355631071318119
15,-3.194078471741302
16,4.647708600387887
17,-0.48543668314096069
18,8.174609852554122
2,1, 1, 1, 0,19,45.00,60.00,Tuesday
7,-2.2
8,0.0
9,0.0
10,0.0
11,0.0
12,0.0
13,0.0
14,7.799340773026985
15,-3.177164496603028
16,4.54245635203938
17,-0.6820649073668506
18,8.137187330195577
2,1, 1, 1, 0,20, 0.00,15.00,Tuesday
7,-1.9250000000000003
8,0.0
9,0.0
10,0.0
11,0.0
12,0.0
13,0.0
14,7.781828866856595
15,-2.8773235728962227
16,4.607267786007753
17,-0.5246059750512018
18,8.103126506783284
2,1, 1, 1, 0,20,15.00,30.00,Tuesday
7,-1.6500000000000002
8,0.0
9,0.0
10,0.0
11,0.0
12,0.0
13,0.0
14,7.7637337424588479
15,-2.5804040617925
16,4.657195546638036
17,-0.33795675777287217
18,8.07321984163204
2,1, 1, 1, 0,20,30.00,45.00,Tuesday
7,-1.375
8,0.0
9,0.0
10,0.0
11,0.0
12,0.0
13,0.0
14,7.748041217480695
15,-2.2846543613081167
16,4.717872740991766
17,-0.16478001718041924
18,8.046920536039691
2,1, 1, 1, 0,20,45.00,60.00,Tuesday
7,-1.1
8,0.0
9,0.0
10,0.0
11,0.0
12,0.0
13,0.0
14,7.734100801221081
15,-1.9901110938661329
16,4.771596028124577
17,0.030046097369108794
18,8.023130088545229
2,1, 1, 1, 0,21, 0.00,15.00,Tuesday
7,-1.25
8,0.0
9,0.0
10,0.0
11,0.0
12,0.0
13,0.0
14,7.680294811018448
15,-2.2659886229274659
16,4.750080119571976
17,0.02035863909145519
18,7.994962441296143
2,1, 1, 1, 0,21,15.00,30.00,Tuesday
7,-1.4
8,0.0
9,0.0
10,0.0
11,0.0
12,0.0
13,0.0
14,7.627138698506248
15,-2.4797641570816375
16,4.696112091269697
17,-0.037623287960741439
18,7.957462926044258
2,1, 1, 1, 0,21,30.00,45.00,Tuesday
7,-1.5499999999999999
8,0.0
9,0.0
10,0.0
11,0.0
12,0.0
13,0.0
14,7.561367758224556
15,-2.8170973962040115
16,4.676002295626176
17,-0.03584622143671368
18,7.910271203100808
2,1, 1, 1, 0,21,45.00,60.00,Tuesday
7,-1.7
8,0.0
9,0.0
10,0.0
11,0.0
12,0.0
13,0.0
14,7.490421480525947
15,-3.2609450174897547
16,4.6550824697028478
17,0.002762609665069249
18,7.855868484453862
2,1, 1, 1, 0,22, 0.00,15.00,Tuesday
7,-1.5499999999999999
8,0.0
9,0.0
10,0.0
11,0.0
12,0.0
13,0.0
14,7.484828173268017
15,-2.7829447845592849
16,4.58995136092426
17,-0.055201431974182927
18,7.806703802908664
2,1, 1, 1, 0,22,15.00,30.00,Tuesday
7,-1.4
8,0.0
9,0.0
10,0.0
11,0.0
12,0.0
13,0.0
14,7.469641690270725
15,-2.459356182670833
16,4.566289466407397
17,-0.0728873003897661
18,7.769645496604633
2,1, 1, 1, 0,22,30.00,45.00,Tuesday
7,-1.25
8,0.0
9,0.0
10,0.0
11,0.0
12,0.0
13,0.0
14,7.453757403555481
15,-2.242240899919644
16,4.574972292316943
17,-0.023812224058474386
18,7.742799355467586
2,1, 1, 1, 0,22,45.00,60.00,Tuesday
7,-1.1
8,0.0
9,0.0
10,0.0
11,0.0
12,0.0
13,0.0
14,7.441441326812892
15,-1.9649604642807717
16,4.565705325915815
17,-0.016329967000046964
18,7.720994819087582
2,1, 1, 1, 0,23, 0.00,15.00,Tuesday
7,-1.25
8,0.0
9,0.0
10,0.0
11,0.0
12,0.0
13,0.0
14,7.38583570143923
15,-2.2683401677723507
16,4.439209311246941
17,-0.26899612943884679
18,7.6934678623486338
2,1, 1, 1, 0,23,15.00,30.00,Tuesday
7,-1.4
8,0.0
9,0.0
10,0.0
11,0.0
12,0.0
13,0.0
14,7.332439294886464
15,-2.573078803488307
16,4.305518437555236
17,-0.5359038626993424
18,7.65524226875722
2,1, 1, 1, 0,23,30.00,45.00,Tuesday
7,-1.5499999999999999
8,0.0
9,0.0
10,0.0
11,0.0
12,0.0
13,0.0
14,7.27407624987907
15,-2.878470510456508
16,4.170042535225662
17,-0.8041673305719996
18,7.6077850176935029
2,1, 1, 1, 0,23,45.00,60.00,Tuesday
7,-1.7
8,0.0
9,0.0
10,0.0
11,0.0
12,0.0
13,0.0
14,7.211685666946075
15,-3.184206015349615
16,4.030730093781585
17,-1.0742474107698855
18,7.5543092635857189
2,1, 1, 1, 0,24, 0.00,15.00,Tuesday
7,-1.7
8,0.0
9,0.0
10,0.0
11,0.0
12,0.0
13,0.0
14,7.165515366058428
15,-3.2384405060028444
16,3.974859443399737
17,-1.1390714686636443
18,7.500884749119672
2,1, 1, 1, 0,24,15.00,30.00,Tuesday
7,-1.7
8,0.0
9,0.0
10,0.0
11,0.0
12,0.0
13,0.0
14,7.1173390756528589
15,-3.293248122225221
16,3.921236332010551
17,-1.2005136672650565
18,7.450534272411268
2,1, 1, 1, 0,24,30.00,45.00,Tuesday
7,-1.7
8,0.0
9,0.0
10,0.0
11,0.0
12,0.0
13,0.0
14,7.070465192128377
15,-3.3479427473716969
16,3.8674846159048
17,-1.2618937477056989
18,7.4030370773605889
2,1, 1, 1, 0,24,45.00,60.00,Tuesday
7,-1.7
8,0.0
9,0.0
10,0.0
11,0.0
12,0.0
13,0.0
14,7.024531071599134
15,-3.4026411594985279
16,3.8146205268931228
17,-1.323009750997926
18,7.357175577458005
End of Data
 Number of Records Written=        1152
