Program Version,EnergyPlus, Version 9.5.0-de239b2e5f, YMD=2023.02.17 18:13
1,5,Environment Title[],Latitude[deg],Longitude[deg],Time Zone[],Elevation[m]
2,8,Day of Simulation[],Month[],Day of Month[],DST Indicator[1=yes 0=no],Hour[],StartMinute[],EndMinute[],DayType
3,5,Cumulative Day of Simulation[],Month[],Day of Month[],DST Indicator[1=yes 0=no],DayType  ! When Daily Report Variables Requested
4,2,Cumulative Days of Simulation[],Month[]  ! When Monthly Report Variables Requested
5,1,Cumulative Days of Simulation[] ! When Run Period Report Variables Requested
6,1,Calendar Year of Simulation[] ! When Annual Report Variables Requested
7,1,Environment,Site Outdoor Air Drybulb Temperature [C] !TimeStep
8,1,ZONE ONE,Zone Windows Total Transmitted Solar Radiation Rate [W] !TimeStep
9,1,ZN001:WALL001,Surface Outside Face Sunlit Fraction [] !TimeStep
10,1,ZN001:WALL001,Surface Outside Face Incident Solar Radiation Rate per Area [W/m2] !TimeStep
11,1,ZN001:WALL001:WIN001,Surface Outside Face Sunlit Fraction [] !TimeStep
12,1,ZN001:WALL001:WIN001,Surface Outside Face Incident Solar Radiation Rate per Area [W/m2] !TimeStep
13,1,ZN001:WALL001:WIN001,Surface Window Transmitted Solar Radiation Rate [W] !TimeStep
14,1,ZN001:WALL001,Surface Inside Face Temperature [C] !TimeStep
15,1,ZN001:WALL001,Surface Outside Face Temperature [C] !TimeStep
16,1,ZN001:WALL001:WIN001,Surface Inside Face Temperature [C] !TimeStep
17,1,ZN001:WALL001:WIN001,Surface Outside Face Temperature [C] !TimeStep
18,1,ZONE ONE,Zone Mean Air Temperature [C] !TimeStep
End of Data Dictionary
1,RUN PERIOD 1,  41.98, -87.92,  -6.00, 201.00
2,1, 1, 1, 0, 1, 0.00,15.00,Tuesday
7,-4.324999999999999
8,0.0
9,0.0
10,0.0
11,0.0
12,0.0
13,0.0
14,4.678835187652276
15,-5.9187278377450609
16,1.9212698101227375
17,-4.101733164242887
18,5.098015033068552
2,1, 1, 1, 0, 1,15.00,30.00,Tuesday
7,-6.949999999999999
8,0.0
9,0.0
10,0.0
11,0.0
12,0.0
13,0.0
14,4.494554048139955
15,-8.386420062609114
16,1.1824240881066999
17,-6.089276567898196
18,4.997906970721817
2,1, 1, 1, 0, 1,30.00,45.00,Tuesday
7,-9.575
8,0.0
9,0.0
10,0.0
11,0.0
12,0.0
13,0.0
14,4.289089762514188
15,-10.862216350867467
16,0.43810862881144888
17,-8.083009832827543
18,4.86366209561362
2,1, 1, 1, 0, 1,45.00,60.00,Tuesday
7,-12.2
8,0.0
9,0.0
10,0.0
11,0.0
12,0.0
13,0.0
14,4.066774119625695
15,-13.344628354959373
16,-0.320625239085075
17,-10.084882529183915
18,4.70567086269741
2,1, 1, 1, 0, 2, 0.00,15.00,Tuesday
7,-12.075
8,0.0
9,0.0
10,0.0
11,0.0
12,0.0
13,0.0
14,3.997202119128092
15,-13.145898538661369
16,-0.3679088250602831
17,-9.940576407659819
18,4.563939557921472
2,1, 1, 1, 0, 2,15.00,30.00,Tuesday
7,-11.95
8,0.0
9,0.0
10,0.0
11,0.0
12,0.0
13,0.0
14,3.914085649015553
15,-12.968833259105237
16,-0.3844810232050122
17,-9.81912756257691
18,4.456505510876597
2,1, 1, 1, 0, 2,30.00,45.00,Tuesday
7,-11.825
8,0.0
9,0.0
10,0.0
11,0.0
12,0.0
13,0.0
14,3.8491540487204318
15,-12.790551004961669
16,-0.40324754967446099
17,-9.676840681194165
18,4.377427231317792
2,1, 1, 1, 0, 2,45.00,60.00,Tuesday
7,-11.7
8,0.0
9,0.0
10,0.0
11,0.0
12,0.0
13,0.0
14,3.7962287251807789
15,-12.612348911001375
16,-0.40118130883354299
17,-9.550182059130862
18,4.314999322857167
2,1, 1, 1, 0, 3, 0.00,15.00,Tuesday
7,-11.549999999999999
8,0.0
9,0.0
10,0.0
11,0.0
12,0.0
13,0.0
14,3.7451984623897895
15,-12.48666713951796
16,-0.39703873180224039
17,-9.397051830244607
18,4.259704247156096
2,1, 1, 1, 0, 3,15.00,30.00,Tuesday
7,-11.399999999999999
8,0.0
9,0.0
10,0.0
11,0.0
12,0.0
13,0.0
14,3.6976794036738545
15,-12.362376331537185
16,-0.3831788310369575
17,-9.262259958545087
18,4.206968436209625
2,1, 1, 1, 0, 3,30.00,45.00,Tuesday
7,-11.25
8,0.0
9,0.0
10,0.0
11,0.0
12,0.0
13,0.0
14,3.6511165822695967
15,-12.239627870027512
16,-0.370760539226751
17,-9.118711665402316
18,4.155406565599593
2,1, 1, 1, 0, 3,45.00,60.00,Tuesday
7,-11.1
8,0.0
9,0.0
10,0.0
11,0.0
12,0.0
13,0.0
14,3.605154692225211
15,-12.118482175649824
16,-0.35828654130216366
17,-8.974469663527373
18,4.104783607663944
2,1, 1, 1, 0, 4, 0.00,15.00,Tuesday
7,-11.1
8,0.0
9,0.0
10,0.0
11,0.0
12,0.0
13,0.0
14,3.5552538870575045
15,-12.089588564089631
16,-0.4172215996014188
17,-9.010202719147458
18,4.0538679021945589
2,1, 1, 1, 0, 4,15.00,30.00,Tuesday
7,-11.1
8,0.0
9,0.0
10,0.0
11,0.0
12,0.0
13,0.0
14,3.50572032846142
15,-12.061819373895802
16,-0.46837116602966946
17,-9.052996329828773
18,4.002243474403167
2,1, 1, 1, 0, 4,30.00,45.00,Tuesday
7,-11.1
8,0.0
9,0.0
10,0.0
11,0.0
12,0.0
13,0.0
14,3.4558880865089
15,-12.035607828887667
16,-0.5184310084738399
17,-9.095692234520925
18,3.95012629567038
2,1, 1, 1, 0, 4,45.00,60.00,Tuesday
7,-11.1
8,0.0
9,0.0
10,0.0
11,0.0
12,0.0
13,0.0
14,3.405908767687754
15,-12.010819212254202
16,-0.5681806527563822
17,-9.137418939847408
18,3.8978348826756155
2,1, 1, 1, 0, 5, 0.00,15.00,Tuesday
7,-10.975
8,0.0
9,0.0
10,0.0
11,0.0
12,0.0
13,0.0
14,3.361738054337613
15,-11.888829841736288
16,-0.5693313488236527
17,-9.05845757315285
18,3.846791943675721
2,1, 1, 1, 0, 5,15.00,30.00,Tuesday
7,-10.85
8,0.0
9,0.0
10,0.0
11,0.0
12,0.0
13,0.0
14,3.317830936160009
15,-11.766913463499249
16,-0.5734574520407705
17,-8.971609175808453
18,3.797545439603635
2,1, 1, 1, 0, 5,30.00,45.00,Tuesday
7,-10.725
8,0.0
9,0.0
10,0.0
11,0.0
12,0.0
13,0.0
14,3.2750401329335454
15,-11.644972341131611
16,-0.5774399835839859
17,-8.883720994560463
18,3.749824386780998
2,1, 1, 1, 0, 5,45.00,60.00,Tuesday
7,-10.6
8,0.0
9,0.0
10,0.0
11,0.0
12,0.0
13,0.0
14,3.233174893174514
15,-11.523040159616773
16,-0.5806264508539698
17,-8.795495746340123
18,3.7031912992714854
2,1, 1, 1, 0, 6, 0.00,15.00,Tuesday
7,-10.6
8,0.0
9,0.0
10,0.0
11,0.0
12,0.0
13,0.0
14,3.184149882322383
15,-11.52401012478951
16,-0.620246155341988
17,-8.798974909920844
18,3.655907667925721
2,1, 1, 1, 0, 6,15.00,30.00,Tuesday
7,-10.6
8,0.0
9,0.0
10,0.0
11,0.0
12,0.0
13,0.0
14,3.135761213522356
15,-11.52491684096182
16,-0.6582598132463318
17,-8.808708187279536
18,3.6072150584578335
2,1, 1, 1, 0, 6,30.00,45.00,Tuesday
7,-10.6
8,0.0
9,0.0
10,0.0
11,0.0
12,0.0
13,0.0
14,3.0868090866264676
15,-11.525866874630469
16,-0.6960024474074658
17,-8.819107312077449
18,3.5574125121579724
2,1, 1, 1, 0, 6,45.00,60.00,Tuesday
7,-10.6
8,0.0
9,0.0
10,0.0
11,0.0
12,0.0
13,0.0
14,3.0375241249972726
15,-11.5268149625342
16,-0.7340904937069013
17,-8.82970583181583
18,3.5070492599267828
2,1, 1, 1, 0, 7, 0.00,15.00,Tuesday
7,-10.6
8,0.0
9,0.0
10,0.0
11,0.0
12,0.0
13,0.0
14,2.9902212571188064
15,-11.502945812438668
16,-0.7825766739713345
17,-8.865494912298346
18,3.4567618430685509
2,1, 1, 1, 0, 7,15.00,30.00,Tuesday
7,-10.6
8,0.0
9,0.0
10,0.0
11,0.0
12,0.0
13,0.0
14,2.942772014107811
15,-11.480316853095758
16,-0.8288551023974833
17,-8.901576009649034
18,3.406896877823392
2,1, 1, 1, 0, 7,30.00,45.00,Tuesday
7,-10.6
8,0.0
9,0.0
10,0.0
11,0.0
12,0.0
13,0.0
14,2.895581011322636
15,-11.458838033558154
16,-0.8745520865146546
17,-8.93683593606147
18,3.3574623439728379
2,1, 1, 1, 0, 7,45.00,60.00,Tuesday
7,-10.6
8,0.0
9,0.0
10,0.0
11,0.0
12,0.0
13,0.0
14,2.8486691576983018
15,-11.438440857151427
16,-0.9196753129922399
17,-8.971074500482644
18,3.3083693102452735
2,1, 1, 1, 0, 8, 0.00,15.00,Tuesday
7,-10.45
8,0.0
9,0.0
10,0.0
11,0.0
12,0.0
13,0.0
14,2.8012467842791795
15,-11.389732474118829
16,-0.9294203232605582
17,-8.918811893398925
18,3.2594566153041617
2,1, 1, 1, 0, 8,15.00,30.00,Tuesday
7,-10.3
8,148.01653406384325
9,1.0
10,22.819555959623899
11,1.0
12,22.819555959623899
13,148.01653406384325
14,2.873752342238874
15,-9.7162349348014
16,-0.6053981194920652
17,-8.569626085723769
18,3.2285478951818029
2,1, 1, 1, 0, 8,30.00,45.00,Tuesday
7,-10.15
8,726.7626658810535
9,1.0
10,109.75755355442667
11,1.0
12,109.75755355442667
13,726.7626658810535
14,3.27408003269944
15,-3.34846336479424
16,0.7355855442385177
17,-7.384304293563332
18,3.2652211006043108
2,1, 1, 1, 0, 8,45.00,60.00,Tuesday
7,-10.0
8,1321.5398876203654
9,1.0
10,195.8764694434918
11,1.0
12,195.8764694434918
13,1321.5398876203654
14,3.804373274971069
15,3.1557168553729819
16,2.1892782748922174
17,-6.172113280582664
18,3.3758920078518899
2,1, 1, 1, 0, 9, 0.00,15.00,Tuesday
7,-9.725
8,1914.2684677032626
9,1.0
10,278.97248314719988
11,1.0
12,278.97248314719988
13,1914.2684677032626
14,4.1858669426008598
15,8.310786336987358
16,3.6945682245547575
17,-5.069642205664195
18,3.5393273423902458
2,1, 1, 1, 0, 9,15.00,30.00,Tuesday
7,-9.45
8,2539.072313923231
9,1.0
10,364.91995730569456
11,1.0
12,364.91995730569456
13,2539.072313923231
14,4.61932788417981
15,13.394139585970267
16,5.1934690161546659
17,-3.970374248974281
18,3.7469993767915654
2,1, 1, 1, 0, 9,30.00,45.00,Tuesday
7,-9.175
8,2952.440164549716
9,1.0
10,420.35879993239237
11,1.0
12,420.35879993239237
13,2952.440164549716
14,4.925025656202686
15,16.15174691816442
16,6.179331205486278
17,-3.290467020172059
18,3.9784010226259816
2,1, 1, 1, 0, 9,45.00,60.00,Tuesday
7,-8.9
8,3381.5497710085135
9,1.0
10,478.00138373643099
11,1.0
12,478.00138373643099
13,3381.5497710085135
14,5.282491897166409
15,19.14691017408925
16,7.1635479879202539
17,-2.590552618158654
18,4.223228904115179
2,1, 1, 1, 0,10, 0.00,15.00,Tuesday
7,-8.350000000000002
8,3819.72525310092
9,1.0
10,536.9185644770597
11,1.0
12,536.9185644770597
13,3819.72525310092
14,5.585531801288321
15,20.264648132319249
16,8.16258500104584
17,-1.8934463969168292
18,4.481507964610318
2,1, 1, 1, 0,10,15.00,30.00,Tuesday
7,-7.800000000000001
8,4273.038382064532
9,1.0
10,598.0969199229219
11,1.0
12,598.0969199229219
13,4273.038382064532
14,5.916436756654792
15,21.51772120843578
16,9.176476730925856
17,-1.1974466265285174
18,4.759448262608691
2,1, 1, 1, 0,10,30.00,45.00,Tuesday
7,-7.25
8,4570.41705598247
9,1.0
10,637.6133352894237
11,1.0
12,637.6133352894237
13,4570.41705598247
14,6.171896198272701
15,21.577514129056988
16,9.899266037715393
17,-0.7219971769812901
18,5.05023244689027
2,1, 1, 1, 0,10,45.00,60.00,Tuesday
7,-6.7
8,4863.415499985352
9,1.0
10,676.6412284283772
11,1.0
12,676.6412284283772
13,4863.415499985352
14,6.452192221839756
15,21.73784788100881
16,10.598832874372875
17,-0.24931519059293806
18,5.342350490459337
2,1, 1, 1, 0,11, 0.00,15.00,Tuesday
7,-6.275
8,5151.083555253686
9,1.0
10,715.0112779846514
11,1.0
12,715.0112779846514
13,5151.083555253686
14,6.8104137231225769
15,23.835767442153583
16,11.368962674796308
17,0.47761289962761568
18,5.636882295443742
2,1, 1, 1, 0,11,15.00,30.00,Tuesday
7,-5.85
8,5431.980261502767
9,1.0
10,752.5077794605232
11,1.0
12,752.5077794605232
13,5431.980261502767
14,7.158697933636217
15,25.771144092094116
16,12.130067566209675
17,1.1867454032793604
18,5.757343728303477
2,1, 1, 1, 0,11,30.00,45.00,Tuesday
7,-5.425
8,5348.498206243613
9,1.0
10,742.5988714321785
11,1.0
12,742.5988714321785
13,5348.498206243613
14,7.322290588324202
15,25.622016597792347
16,12.271027504725339
17,1.462451775735076
18,5.982134575983581
2,1, 1, 1, 0,11,45.00,60.00,Tuesday
7,-5.0
8,5229.212085323862
9,1.0
10,727.8169025450712
11,1.0
12,727.8169025450712
13,5229.212085323862
14,7.454663034462433
15,25.392093718912549
16,12.29986907025301
17,1.6975122165991934
18,6.277669097356833
2,1, 1, 1, 0,12, 0.00,15.00,Tuesday
7,-4.575
8,5024.076099878796
9,1.0
10,700.3759009170325
11,1.0
12,700.3759009170325
13,5024.076099878796
14,7.62775958641991
15,24.651696213136718
16,12.21994572566382
17,1.8745436862112684
18,6.5638830843367439
2,1, 1, 1, 0,12,15.00,30.00,Tuesday
7,-4.15
8,4871.94122931558
9,1.0
10,681.6705029034473
11,1.0
12,681.6705029034473
13,4871.94122931558
14,7.82054795966208
15,24.32162666648959
16,12.253149092928425
17,2.1278331279595479
18,6.811503904745997
2,1, 1, 1, 0,12,30.00,45.00,Tuesday
7,-3.7249999999999998
8,4277.158639322997
9,1.0
10,602.01865277251
11,1.0
12,602.01865277251
13,4277.158639322997
14,7.765284135402152
15,21.29362468333649
16,11.516780109329944
17,1.8606891696929325
18,6.99096748936276
2,1, 1, 1, 0,12,45.00,60.00,Tuesday
7,-3.3
8,3493.2091881935878
9,1.0
10,493.55004396206007
11,1.0
12,493.55004396206007
13,3493.2091881935878
14,7.587455723779441
15,17.11543342564944
16,10.317714238590782
17,1.3210096907282037
18,7.0817480280526798
2,1, 1, 1, 0,13, 0.00,15.00,Tuesday
7,-3.0249999999999996
8,2884.3295946875239
9,1.0
10,412.335026418112
11,1.0
12,412.335026418112
13,2884.3295946875239
14,7.462353620481588
15,14.271364677026508
16,9.362780047920865
17,0.9466533286716867
18,7.104722159051852
2,1, 1, 1, 0,13,15.00,30.00,Tuesday
7,-2.75
8,2112.505852962877
9,1.0
10,305.94037763660148
11,1.0
12,305.94037763660148
13,2112.505852962877
14,7.168027382191878
15,10.098559407726503
16,8.020807159176627
17,0.32477953828720276
18,7.072190221221055
2,1, 1, 1, 0,13,30.00,45.00,Tuesday
7,-2.475
8,1928.6430638732532
9,1.0
10,281.0763483922329
11,1.0
12,281.0763483922329
13,1928.6430638732532
14,7.1470552206244239
15,9.586365003775365
16,7.728988685380784
17,0.4148625895522855
18,7.023258378964337
2,1, 1, 1, 0,13,45.00,60.00,Tuesday
7,-2.2
8,1748.610390799348
9,1.0
10,256.7721209415886
11,1.0
12,256.7721209415886
13,1748.610390799348
14,7.112634601728287
15,8.979175649884187
16,7.5014259141129859
17,0.5295636481755537
18,6.981944669670636
2,1, 1, 1, 0,14, 0.00,15.00,Tuesday
7,-1.9250000000000003
8,1428.4368474723443
9,1.0
10,210.73276284570657
11,1.0
12,210.73276284570657
13,1428.4368474723443
14,6.978635676057373
15,7.432044969675152
16,6.922618938388041
17,0.40938000829868317
18,6.945625422114403
2,1, 1, 1, 0,14,15.00,30.00,Tuesday
7,-1.6500000000000002
8,1268.9130128286689
9,1.0
10,189.38488290342594
11,1.0
12,189.38488290342594
13,1268.9130128286689
14,6.946806280563941
15,7.026353016170251
16,6.678157600292764
17,0.506189316692712
18,6.914349102069245
2,1, 1, 1, 0,14,30.00,45.00,Tuesday
7,-1.375
8,1210.1839078162066
9,1.0
10,179.3940297802914
11,1.0
12,179.3940297802914
13,1210.1839078162066
14,6.941329292096853
15,7.148898905438591
16,6.650231003695012
17,0.7294993883480174
18,6.889306331567672
2,1, 1, 1, 0,14,45.00,60.00,Tuesday
7,-1.1
8,1150.7838549837705
9,1.0
10,169.43349014176136
11,1.0
12,169.43349014176136
13,1150.7838549837705
14,6.9327644881015459
15,7.247767664812425
16,6.616213543609092
17,0.9501145805792817
18,6.869816739180102
2,1, 1, 1, 0,15, 0.00,15.00,Tuesday
7,-1.1
8,1211.2722036175777
9,1.0
10,178.15692317953907
11,1.0
12,178.15692317953907
13,1211.2722036175777
14,6.991119425061536
15,8.064439696522364
16,6.769242423761057
17,1.100186780733452
18,6.85883622754283
2,1, 1, 1, 0,15,15.00,30.00,Tuesday
7,-1.1
8,1137.9569692377798
9,1.0
10,166.40516310952945
11,1.0
12,166.40516310952945
13,1137.9569692377798
14,6.942901284704692
15,7.702164612794851
16,6.620783132309839
17,1.0392766985893332
18,6.85070607299955
2,1, 1, 1, 0,15,30.00,45.00,Tuesday
7,-1.1
8,959.5048700077512
9,1.0
10,140.8967369711617
11,1.0
12,140.8967369711617
13,959.5048700077512
14,6.830728872519436
15,6.495742964077143
16,6.221981996837599
17,0.7998638395531543
18,6.834981860244804
2,1, 1, 1, 0,15,45.00,60.00,Tuesday
7,-1.1
8,789.5943100591383
9,1.0
10,116.57355796743004
11,1.0
12,116.57355796743004
13,789.5943100591383
14,6.709076451963159
15,5.280864406799914
16,5.833091653214581
17,0.5538206272350408
18,6.802680756219168
2,1, 1, 1, 0,16, 0.00,15.00,Tuesday
7,-1.1
8,626.6670946064958
9,1.0
10,93.14939272689483
11,1.0
12,93.14939272689483
13,626.6670946064958
14,6.612025399692856
15,4.235203018583626
16,5.491172216765506
17,0.387922346799769
18,6.751926995449273
2,1, 1, 1, 0,16,15.00,30.00,Tuesday
7,-1.1
8,389.0360678411529
9,1.0
10,57.94047897402063
11,1.0
12,57.94047897402063
13,389.0360678411529
14,6.421155846620762
15,2.109135914394259
16,4.960659163244827
17,0.06234188862117662
18,6.67546443934997
2,1, 1, 1, 0,16,30.00,45.00,Tuesday
7,-1.1
8,301.6300334628514
9,1.0
10,45.38251793443488
11,1.0
12,45.38251793443488
13,301.6300334628514
14,6.348475905660916
15,1.4978075287312174
16,4.745390842611073
17,-0.001086801349970301
18,6.583875794426079
2,1, 1, 1, 0,16,45.00,60.00,Tuesday
7,-1.1
8,210.55774644166127
9,1.0
10,32.02625108222755
11,1.0
12,32.02625108222755
13,210.55774644166127
14,6.235888448444164
15,0.6328545805848032
16,4.537028856862378
17,-0.07080278650937544
18,6.491617339615941
2,1, 1, 1, 0,17, 0.00,15.00,Tuesday
7,-1.1
8,115.49062901598868
9,1.0
10,17.762198626050539
11,1.0
12,17.762198626050539
13,115.49062901598868
14,6.097651129701827
15,-0.6204248661418542
16,4.268615558111037
17,-0.24908538092927302
18,6.399534058814512
2,1, 1, 1, 0,17,15.00,30.00,Tuesday
7,-1.1
8,0.0
9,0.0
10,0.0
11,0.0
12,0.0
13,0.0
14,5.909525007206921
15,-2.458647417799732
16,3.9149312158458544
17,-0.5451434636757426
18,6.296391556054071
2,1, 1, 1, 0,17,30.00,45.00,Tuesday
7,-1.1
8,0.0
9,0.0
10,0.0
11,0.0
12,0.0
13,0.0
14,5.8549907614083349
15,-2.595252916168947
16,3.842725954516368
17,-0.5370139933496034
18,6.196219247890241
2,1, 1, 1, 0,17,45.00,60.00,Tuesday
7,-1.1
8,0.0
9,0.0
10,0.0
11,0.0
12,0.0
13,0.0
14,5.784963467380675
15,-2.7878521638776987
16,3.8068119853321606
17,-0.5106108329440531
18,6.112151156141135
2,1, 1, 1, 0,18, 0.00,15.00,Tuesday
7,-1.25
8,0.0
9,0.0
10,0.0
11,0.0
12,0.0
13,0.0
14,5.726264408685128
15,-2.935486596350867
16,3.7129634931950479
17,-0.6436616766425232
18,6.044787573940388
2,1, 1, 1, 0,18,15.00,30.00,Tuesday
7,-1.4
8,0.0
9,0.0
10,0.0
11,0.0
12,0.0
13,0.0
14,5.672720036704925
15,-3.0879245469256189
16,3.635639425187378
17,-0.7641319256757697
18,5.989021016125206
2,1, 1, 1, 0,18,30.00,45.00,Tuesday
7,-1.5499999999999999
8,0.0
9,0.0
10,0.0
11,0.0
12,0.0
13,0.0
14,5.62322475961014
15,-3.239874638062705
16,3.5599966724851699
17,-0.8888288973857925
18,5.939662590531948
2,1, 1, 1, 0,18,45.00,60.00,Tuesday
7,-1.7
8,0.0
9,0.0
10,0.0
11,0.0
12,0.0
13,0.0
14,5.57570263717585
15,-3.391997656092637
16,3.4871984747830426
17,-1.0127010317440864
18,5.893424361634576
2,1, 1, 1, 0,19, 0.00,15.00,Tuesday
7,-1.825
8,0.0
9,0.0
10,0.0
11,0.0
12,0.0
13,0.0
14,5.553399532353155
15,-3.242324897921657
16,3.3985300262713737
17,-1.1752734515281418
18,5.852033010310574
2,1, 1, 1, 0,19,15.00,30.00,Tuesday
7,-1.9500000000000002
8,0.0
9,0.0
10,0.0
11,0.0
12,0.0
13,0.0
14,5.530032942840787
15,-3.174292846855604
16,3.3259055653670659
17,-1.3245563101472158
18,5.817231406848
2,1, 1, 1, 0,19,30.00,45.00,Tuesday
7,-2.075
8,0.0
9,0.0
10,0.0
11,0.0
12,0.0
13,0.0
14,5.502003754218421
15,-3.2477789270671799
16,3.271371356506961
17,-1.4379624059315575
18,5.787725372910127
2,1, 1, 1, 0,19,45.00,60.00,Tuesday
7,-2.2
8,0.0
9,0.0
10,0.0
11,0.0
12,0.0
13,0.0
14,5.476783265295453
15,-3.224440996219713
16,3.2027622293851438
17,-1.5817351807340856
18,5.760466082616984
2,1, 1, 1, 0,20, 0.00,15.00,Tuesday
7,-1.9250000000000003
8,0.0
9,0.0
10,0.0
11,0.0
12,0.0
13,0.0
14,5.468924953682151
15,-2.923012053548562
16,3.267136595345278
17,-1.4004821329864399
18,5.736414206306396
2,1, 1, 1, 0,20,15.00,30.00,Tuesday
7,-1.6500000000000002
8,0.0
9,0.0
10,0.0
11,0.0
12,0.0
13,0.0
14,5.460650871325467
15,-2.6246224755555564
16,3.318885057752084
17,-1.1886886115195239
18,5.716033347120906
2,1, 1, 1, 0,20,30.00,45.00,Tuesday
7,-1.375
8,0.0
9,0.0
10,0.0
11,0.0
12,0.0
13,0.0
14,5.454326681529654
15,-2.3274905283415174
16,3.376642642826596
17,-0.9825015917974724
18,5.698781137883422
2,1, 1, 1, 0,20,45.00,60.00,Tuesday
7,-1.1
8,0.0
9,0.0
10,0.0
11,0.0
12,0.0
13,0.0
14,5.449690661932195
15,-2.031632900441752
16,3.4369882765422519
17,-0.7739638538510576
18,5.683853655445103
2,1, 1, 1, 0,21, 0.00,15.00,Tuesday
7,-1.25
8,0.0
9,0.0
10,0.0
11,0.0
12,0.0
13,0.0
14,5.402317316803376
15,-2.313956164422392
16,3.395676636336134
17,-0.8419583591485207
18,5.664289911976562
2,1, 1, 1, 0,21,15.00,30.00,Tuesday
7,-1.4
8,0.0
9,0.0
10,0.0
11,0.0
12,0.0
13,0.0
14,5.356431222304885
15,-2.531130658801207
16,3.3402567029928038
17,-0.9330437439140837
18,5.635298766290495
2,1, 1, 1, 0,21,30.00,45.00,Tuesday
7,-1.5499999999999999
8,0.0
9,0.0
10,0.0
11,0.0
12,0.0
13,0.0
14,5.2970588430529379
15,-2.8770432975514357
16,3.294949408935281
17,-0.9943614278379869
18,5.596100881035645
2,1, 1, 1, 0,21,45.00,60.00,Tuesday
7,-1.7
8,0.0
9,0.0
10,0.0
11,0.0
12,0.0
13,0.0
14,5.232495113301705
15,-3.330769756725307
16,3.252835176880467
17,-1.0289119173532982
18,5.549031939207819
2,1, 1, 1, 0,22, 0.00,15.00,Tuesday
7,-1.5499999999999999
8,0.0
9,0.0
10,0.0
11,0.0
12,0.0
13,0.0
14,5.237304276943103
15,-2.841115835676307
16,3.228309637055986
17,-1.0205018467587479
18,5.507507273214086
2,1, 1, 1, 0,22,15.00,30.00,Tuesday
7,-1.4
8,0.0
9,0.0
10,0.0
11,0.0
12,0.0
13,0.0
14,5.232211094844883
15,-2.509605885915833
16,3.2330583671850947
17,-0.9603081775670717
18,5.478717074809121
2,1, 1, 1, 0,22,30.00,45.00,Tuesday
7,-1.25
8,0.0
9,0.0
10,0.0
11,0.0
12,0.0
13,0.0
14,5.225788476614079
15,-2.288907437986193
16,3.2539683571339426
17,-0.8731135520003477
18,5.460589997756365
2,1, 1, 1, 0,22,45.00,60.00,Tuesday
7,-1.1
8,0.0
9,0.0
10,0.0
11,0.0
12,0.0
13,0.0
14,5.22324924301614
15,-2.0052592256597627
16,3.2717617582435425
17,-0.7954308311648219
18,5.447970025833572
2,1, 1, 1, 0,23, 0.00,15.00,Tuesday
7,-1.25
8,0.0
9,0.0
10,0.0
11,0.0
12,0.0
13,0.0
14,5.17500076786923
15,-2.3087201827773637
16,3.1627376690668145
17,-1.0569732064508344
18,5.430145673540428
2,1, 1, 1, 0,23,15.00,30.00,Tuesday
7,-1.4
8,0.0
9,0.0
10,0.0
11,0.0
12,0.0
13,0.0
14,5.129669483044812
15,-2.613329197333352
16,3.043965885230648
17,-1.335293614647071
18,5.401843977318567
2,1, 1, 1, 0,23,30.00,45.00,Tuesday
7,-1.5499999999999999
8,0.0
9,0.0
10,0.0
11,0.0
12,0.0
13,0.0
14,5.07962324674594
15,-2.918610099074132
16,2.923552199066421
17,-1.6152833377276466
18,5.364197097167049
2,1, 1, 1, 0,23,45.00,60.00,Tuesday
7,-1.7
8,0.0
9,0.0
10,0.0
11,0.0
12,0.0
13,0.0
14,5.025603334722305
15,-3.224233503374111
16,2.7991119557225376
17,-1.8975285668003608
18,5.32024537626215
2,1, 1, 1, 0,24, 0.00,15.00,Tuesday
7,-1.7
8,0.0
9,0.0
10,0.0
11,0.0
12,0.0
13,0.0
14,4.988112784819296
15,-3.2782531857313774
16,2.7488485853922954
17,-1.962838223092092
18,5.275823024028027
2,1, 1, 1, 0,24,15.00,30.00,Tuesday
7,-1.7
8,0.0
9,0.0
10,0.0
11,0.0
12,0.0
13,0.0
14,4.948465305133051
15,-3.3329168106789397
16,2.702376887520529
17,-2.023657544778928
18,5.234037604832369
2,1, 1, 1, 0,24,30.00,45.00,Tuesday
7,-1.7
8,0.0
9,0.0
10,0.0
11,0.0
12,0.0
13,0.0
14,4.909900074485067
15,-3.387469085884538
16,2.6556944721172615
17,-2.0842443654139517
18,5.194888934359441
2,1, 1, 1, 0,24,45.00,60.00,Tuesday
7,-1.7
8,0.0
9,0.0
10,0.0
11,0.0
12,0.0
13,0.0
14,4.872166633130723
15,-3.4420230990193998
16,2.609892088923175
17,-2.1444282860361456
18,5.157323871697328
End of Data
 Number of Records Written=        1152
