Program Version,EnergyPlus, Version 9.5.0-de239b2e5f, YMD=2023.02.17 18:13
1,5,Environment Title[],Latitude[deg],Longitude[deg],Time Zone[],Elevation[m]
2,8,Day of Simulation[],Month[],Day of Month[],DST Indicator[1=yes 0=no],Hour[],StartMinute[],EndMinute[],DayType
3,5,Cumulative Day of Simulation[],Month[],Day of Month[],DST Indicator[1=yes 0=no],DayType  ! When Daily Report Variables Requested
4,2,Cumulative Days of Simulation[],Month[]  ! When Monthly Report Variables Requested
5,1,Cumulative Days of Simulation[] ! When Run Period Report Variables Requested
6,1,Calendar Year of Simulation[] ! When Annual Report Variables Requested
7,1,Environment,Site Outdoor Air Drybulb Temperature [C] !TimeStep
8,1,ZONE ONE,Zone Windows Total Transmitted Solar Radiation Rate [W] !TimeStep
9,1,ZN001:WALL001,Surface Outside Face Sunlit Fraction [] !TimeStep
10,1,ZN001:WALL001,Surface Outside Face Incident Solar Radiation Rate per Area [W/m2] !TimeStep
11,1,ZN001:WALL001:WIN001,Surface Outside Face Sunlit Fraction [] !TimeStep
12,1,ZN001:WALL001:WIN001,Surface Outside Face Incident Solar Radiation Rate per Area [W/m2] !TimeStep
13,1,ZN001:WALL001:WIN001,Surface Window Transmitted Solar Radiation Rate [W] !TimeStep
14,1,ZN001:WALL001,Surface Inside Face Temperature [C] !TimeStep
15,1,ZN001:WALL001,Surface Outside Face Temperature [C] !TimeStep
16,1,ZN001:WALL001:WIN001,Surface Inside Face Temperature [C] !TimeStep
17,1,ZN001:WALL001:WIN001,Surface Outside Face Temperature [C] !TimeStep
18,1,ZONE ONE,Zone Mean Air Temperature [C] !TimeStep
End of Data Dictionary
1,RUN PERIOD 1,  41.98, -87.92,  -6.00, 201.00
2,1, 1, 1, 0, 1, 0.00,15.00,Tuesday
7,-4.324999999999999
8,0.0
9,0.0
10,0.0
11,0.0
12,0.0
13,0.0
14,5.991017752430087
15,-5.8947997766802449
16,4.291279352533138
17,-4.855787314644658
18,6.4624042737431
2,1, 1, 1, 0, 1,15.00,30.00,Tuesday
7,-6.949999999999999
8,0.0
9,0.0
10,0.0
11,0.0
12,0.0
13,0.0
14,5.812712456436065
15,-8.362156909792152
16,3.8010217770937517
17,-7.0328183030419499
18,6.369451149393421
2,1, 1, 1, 0, 1,30.00,45.00,Tuesday
7,-9.575
8,0.0
9,0.0
10,0.0
11,0.0
12,0.0
13,0.0
14,5.615580589756656
15,-10.837424903623102
16,3.305122983628678
17,-9.216684763756348
18,6.246394539757002
2,1, 1, 1, 0, 1,45.00,60.00,Tuesday
7,-12.2
8,0.0
9,0.0
10,0.0
11,0.0
12,0.0
13,0.0
14,5.403445367102236
15,-13.319304913976538
16,2.7944977390737906
17,-11.40823130418346
18,6.102285758063247
2,1, 1, 1, 0, 2, 0.00,15.00,Tuesday
7,-12.075
8,0.0
9,0.0
10,0.0
11,0.0
12,0.0
13,0.0
14,5.338887831706665
15,-13.120192368058508
16,2.7087130944869388
17,-11.245504045564872
18,5.97169014064448
2,1, 1, 1, 0, 2,15.00,30.00,Tuesday
7,-11.95
8,0.0
9,0.0
10,0.0
11,0.0
12,0.0
13,0.0
14,5.260581528351638
15,-12.943069211112045
16,2.666691913126158
17,-11.088236260132249
18,5.8709701242233269
2,1, 1, 1, 0, 2,30.00,45.00,Tuesday
7,-11.825
8,0.0
9,0.0
10,0.0
11,0.0
12,0.0
13,0.0
14,5.198459291515943
15,-12.764821853076043
16,2.6293174987557679
17,-10.930835907271899
18,5.79532486336118
2,1, 1, 1, 0, 2,45.00,60.00,Tuesday
7,-11.7
8,0.0
9,0.0
10,0.0
11,0.0
12,0.0
13,0.0
14,5.146953770510493
15,-12.58665263245466
16,2.6043389383455635
17,-10.771594430309279
18,5.734474964416581
2,1, 1, 1, 0, 3, 0.00,15.00,Tuesday
7,-11.549999999999999
8,0.0
9,0.0
10,0.0
11,0.0
12,0.0
13,0.0
14,5.096864081896498
15,-12.460276166196936
16,2.5867449303293599
17,-10.635482000492289
18,5.679949338623723
2,1, 1, 1, 0, 3,15.00,30.00,Tuesday
7,-11.399999999999999
8,0.0
9,0.0
10,0.0
11,0.0
12,0.0
13,0.0
14,5.049773940828819
15,-12.335253015200971
16,2.565801177592448
17,-10.481444857186603
18,5.6274557427765858
2,1, 1, 1, 0, 3,30.00,45.00,Tuesday
7,-11.25
8,0.0
9,0.0
10,0.0
11,0.0
12,0.0
13,0.0
14,5.003530530397266
15,-12.211739829355679
16,2.551681266777166
17,-10.344621179719639
18,5.575835854976266
2,1, 1, 1, 0, 3,45.00,60.00,Tuesday
7,-11.1
8,0.0
9,0.0
10,0.0
11,0.0
12,0.0
13,0.0
14,4.957695165748052
15,-12.089789389682212
16,2.535915020915695
17,-10.199787043045604
18,5.524956649645034
2,1, 1, 1, 0, 4, 0.00,15.00,Tuesday
7,-11.1
8,0.0
9,0.0
10,0.0
11,0.0
12,0.0
13,0.0
14,4.908294765454053
15,-12.06170798635644
16,2.4845832964784906
17,-10.215853932245864
18,5.474133314947921
2,1, 1, 1, 0, 4,15.00,30.00,Tuesday
7,-11.1
8,0.0
9,0.0
10,0.0
11,0.0
12,0.0
13,0.0
14,4.859327361985873
15,-12.034704416499839
16,2.4372133339267068
17,-10.238668046953876
18,5.423083346091924
2,1, 1, 1, 0, 4,30.00,45.00,Tuesday
7,-11.1
8,0.0
9,0.0
10,0.0
11,0.0
12,0.0
13,0.0
14,4.810263589669045
15,-12.009216452431336
16,2.390362048626457
17,-10.261212521763583
18,5.3718769859638819
2,1, 1, 1, 0, 4,45.00,60.00,Tuesday
7,-11.1
8,0.0
9,0.0
10,0.0
11,0.0
12,0.0
13,0.0
14,4.761183659493293
15,-11.985115943782616
16,2.3436640492144535
17,-10.283016643000565
18,5.3206606983016979
2,1, 1, 1, 0, 5, 0.00,15.00,Tuesday
7,-10.975
8,0.0
9,0.0
10,0.0
11,0.0
12,0.0
13,0.0
14,4.717588935468383
15,-11.863132894320549
16,2.3230713381638568
17,-10.18941745032771
18,5.270443054140389
2,1, 1, 1, 0, 5,15.00,30.00,Tuesday
7,-10.85
8,0.0
9,0.0
10,0.0
11,0.0
12,0.0
13,0.0
14,4.674172241317172
15,-11.741223357736246
16,2.3015360253934888
17,-10.088027057714783
18,5.2216563391478829
2,1, 1, 1, 0, 5,30.00,45.00,Tuesday
7,-10.725
8,0.0
9,0.0
10,0.0
11,0.0
12,0.0
13,0.0
14,4.6316934743342339
15,-11.61929342970856
16,2.2803855585713679
17,-9.98596393973395
18,5.17411526259959
2,1, 1, 1, 0, 5,45.00,60.00,Tuesday
7,-10.6
8,0.0
9,0.0
10,0.0
11,0.0
12,0.0
13,0.0
14,4.59000307524999
15,-11.497373543344992
16,2.2600144268565147
17,-9.88374316580746
18,5.127494371812691
2,1, 1, 1, 0, 6, 0.00,15.00,Tuesday
7,-10.6
8,0.0
9,0.0
10,0.0
11,0.0
12,0.0
13,0.0
14,4.541414938179405
15,-11.49832414238383
16,2.2174168339141717
17,-9.882607981954607
18,5.0803177437305619
2,1, 1, 1, 0, 6,15.00,30.00,Tuesday
7,-10.6
8,0.0
9,0.0
10,0.0
11,0.0
12,0.0
13,0.0
14,4.493451479300184
15,-11.49922099279697
16,2.1749874843173986
17,-9.888434542748428
18,5.031905463829571
2,1, 1, 1, 0, 6,30.00,45.00,Tuesday
7,-10.6
8,0.0
9,0.0
10,0.0
11,0.0
12,0.0
13,0.0
14,4.4449771247890859
15,-11.500159145840274
16,2.132669644156863
17,-9.894786183645238
18,4.98250758663919
2,1, 1, 1, 0, 6,45.00,60.00,Tuesday
7,-10.6
8,0.0
9,0.0
10,0.0
11,0.0
12,0.0
13,0.0
14,4.396201205945848
15,-11.501095635855199
16,2.089981538963343
17,-9.901247226968167
18,4.932604162468231
2,1, 1, 1, 0, 7, 0.00,15.00,Tuesday
7,-10.6
8,0.0
9,0.0
10,0.0
11,0.0
12,0.0
13,0.0
14,4.349439977589208
15,-11.47789440724836
16,2.0444550791069107
17,-9.919277154266809
18,4.882893742798384
2,1, 1, 1, 0, 7,15.00,30.00,Tuesday
7,-10.6
8,0.0
9,0.0
10,0.0
11,0.0
12,0.0
13,0.0
14,4.302567915606852
15,-11.455894218102408
16,2.0003888175755266
17,-9.937268940404465
18,4.833726675676189
2,1, 1, 1, 0, 7,30.00,45.00,Tuesday
7,-10.6
8,0.0
9,0.0
10,0.0
11,0.0
12,0.0
13,0.0
14,4.256005642399594
15,-11.435013429743629
16,1.956619200374746
17,-9.954699728312506
18,4.785068470212356
2,1, 1, 1, 0, 7,45.00,60.00,Tuesday
7,-10.6
8,0.0
9,0.0
10,0.0
11,0.0
12,0.0
13,0.0
14,4.20975166470377
15,-11.415185936633387
16,1.9132561052765596
17,-9.9714991668543
18,4.73678763589469
2,1, 1, 1, 0, 8, 0.00,15.00,Tuesday
7,-10.45
8,0.0
9,0.0
10,0.0
11,0.0
12,0.0
13,0.0
14,4.162797534581346
15,-11.365880211230336
16,1.884721358294314
17,-9.92474717502671
18,4.688411237038804
2,1, 1, 1, 0, 8,15.00,30.00,Tuesday
7,-10.3
8,148.01653406384325
9,1.0
10,22.819555959623899
11,1.0
12,22.819555959623899
13,148.01653406384325
14,4.233357975967773
15,-9.692337376380693
16,2.183335500572298
17,-9.605504369008714
18,4.65752382783334
2,1, 1, 1, 0, 8,30.00,45.00,Tuesday
7,-10.15
8,726.7626658810535
9,1.0
10,109.75755355442667
11,1.0
12,109.75755355442667
13,726.7626658810535
14,4.623657599509835
15,-3.3220876295512227
16,3.4840747585155329
17,-8.500851010834595
18,4.693064860576667
2,1, 1, 1, 0, 8,45.00,60.00,Tuesday
7,-10.0
8,1321.5398876203654
9,1.0
10,195.8764694434918
11,1.0
12,195.8764694434918
13,1321.5398876203654
14,5.110472237988129
15,3.154422326165794
16,4.984797700700938
17,-7.382847750743281
18,4.8013702417824659
2,1, 1, 1, 0, 9, 0.00,15.00,Tuesday
7,-9.725
8,1914.2684677032626
9,1.0
10,278.97248314719988
11,1.0
12,278.97248314719988
13,1914.2684677032626
14,5.538220958270954
15,8.339152082862164
16,6.397018314256911
17,-6.392382842962206
18,4.963166730662588
2,1, 1, 1, 0, 9,15.00,30.00,Tuesday
7,-9.45
8,2539.072313923231
9,1.0
10,364.91995730569456
11,1.0
12,364.91995730569456
13,2539.072313923231
14,5.968573940820172
15,13.414025942193039
16,7.798828691482527
17,-5.402817872468518
18,5.169903958976233
2,1, 1, 1, 0, 9,30.00,45.00,Tuesday
7,-9.175
8,2952.440164549716
9,1.0
10,420.35879993239237
11,1.0
12,420.35879993239237
13,2952.440164549716
14,6.272465427590447
15,16.171677737126627
16,8.755810906377122
17,-4.78630963562739
18,5.401569243903441
2,1, 1, 1, 0, 9,45.00,60.00,Tuesday
7,-8.9
8,3381.5497710085135
9,1.0
10,478.00138373643099
11,1.0
12,478.00138373643099
13,3381.5497710085135
14,6.629653454988344
15,19.166120959140299
16,9.70614826218025
17,-4.146907939546395
18,5.647362124348993
2,1, 1, 1, 0,10, 0.00,15.00,Tuesday
7,-8.350000000000002
8,3819.72525310092
9,1.0
10,536.9185644770597
11,1.0
12,536.9185644770597
13,3819.72525310092
14,6.932955408127269
15,20.28214284667611
16,10.691011109381578
17,-3.4183117364373745
18,5.907327229309669
2,1, 1, 1, 0,10,15.00,30.00,Tuesday
7,-7.800000000000001
8,4273.038382064532
9,1.0
10,598.0969199229219
11,1.0
12,598.0969199229219
13,4273.038382064532
14,7.264610952492629
15,21.534005267950595
16,11.694766080924524
17,-2.70491845536435
18,6.189254646088445
2,1, 1, 1, 0,10,30.00,45.00,Tuesday
7,-7.25
8,4570.41705598247
9,1.0
10,637.6133352894237
11,1.0
12,637.6133352894237
13,4570.41705598247
14,7.521652160331485
15,21.592686082822995
16,12.429651046798995
17,-2.2061024087528837
18,6.48327155598116
2,1, 1, 1, 0,10,45.00,60.00,Tuesday
7,-6.7
8,4863.415499985352
9,1.0
10,676.6412284283772
11,1.0
12,676.6412284283772
13,4863.415499985352
14,7.803133087339089
15,21.75208438458114
16,13.134340360817419
17,-1.6995627095843702
18,6.777493918613366
2,1, 1, 1, 0,11, 0.00,15.00,Tuesday
7,-6.275
8,5151.083555253686
9,1.0
10,715.0112779846514
11,1.0
12,715.0112779846514
13,5151.083555253686
14,8.161288450801087
15,23.85006767067997
16,13.86105072747398
17,-0.9940862981263763
18,7.072626882610822
2,1, 1, 1, 0,11,15.00,30.00,Tuesday
7,-5.85
8,5431.980261502767
9,1.0
10,752.5077794605232
11,1.0
12,752.5077794605232
13,5431.980261502767
14,8.50918293365131
15,25.785297942571064
16,14.582911378419056
17,-0.3101521826889666
18,7.372119809761182
2,1, 1, 1, 0,11,30.00,45.00,Tuesday
7,-5.425
8,5348.498206243613
9,1.0
10,742.5988714321785
11,1.0
12,742.5988714321785
13,5348.498206243613
14,8.718008306724294
15,25.63721704570835
16,14.737477269416729
17,-0.00781512841683707
18,7.657962999374482
2,1, 1, 1, 0,11,45.00,60.00,Tuesday
7,-5.0
8,5229.212085323862
9,1.0
10,727.8169025450712
11,1.0
12,727.8169025450712
13,5229.212085323862
14,8.921809391332939
15,25.408373156677486
16,14.80336145610545
17,0.2657940568719823
18,7.9167448498895249
2,1, 1, 1, 0,12, 0.00,15.00,Tuesday
7,-4.575
8,5024.076099878796
9,1.0
10,700.3759009170325
11,1.0
12,700.3759009170325
13,5024.076099878796
14,9.06640481031892
15,24.66604319730334
16,14.717448832689229
17,0.4882259858090947
18,8.14084594095295
2,1, 1, 1, 0,12,15.00,30.00,Tuesday
7,-4.15
8,4871.94122931558
9,1.0
10,681.6705029034473
11,1.0
12,681.6705029034473
13,4871.94122931558
14,9.232237825125694
15,24.33589745789112
16,14.707857040563681
17,0.774818805428481
18,8.3379016811237
2,1, 1, 1, 0,12,30.00,45.00,Tuesday
7,-3.7249999999999998
8,4277.158639322997
9,1.0
10,602.01865277251
11,1.0
12,602.01865277251
13,4277.158639322997
14,9.155302677725274
15,21.30765856284632
16,13.966598118922378
17,0.6044994013585097
18,8.485760848382851
2,1, 1, 1, 0,12,45.00,60.00,Tuesday
7,-3.3
8,3493.2091881935878
9,1.0
10,493.55004396206007
11,1.0
12,493.55004396206007
13,3493.2091881935878
14,8.961458233962919
15,17.129477579476928
16,12.77126877517992
17,0.1978395837729181
18,8.559118820474687
2,1, 1, 1, 0,13, 0.00,15.00,Tuesday
7,-3.0249999999999996
8,2884.3295946875239
9,1.0
10,412.335026418112
11,1.0
12,412.335026418112
13,2884.3295946875239
14,8.825875652901374
15,14.285664931686368
16,11.807531847024223
17,-0.07682171642943558
18,8.572638353377453
2,1, 1, 1, 0,13,15.00,30.00,Tuesday
7,-2.75
8,2112.505852962877
9,1.0
10,305.94037763660148
11,1.0
12,305.94037763660148
13,2112.505852962877
14,8.519639002608626
15,10.112517429201536
16,10.48513645868536
17,-0.5638599363744561
18,8.53585053996653
2,1, 1, 1, 0,13,30.00,45.00,Tuesday
7,-2.475
8,1928.6430638732532
9,1.0
10,281.0763483922329
11,1.0
12,281.0763483922329
13,1928.6430638732532
14,8.490983974618699
15,9.59949892049276
16,10.143484492072276
17,-0.4283703667055647
18,8.484916154563776
2,1, 1, 1, 0,13,45.00,60.00,Tuesday
7,-2.2
8,1748.610390799348
9,1.0
10,256.7721209415886
11,1.0
12,256.7721209415886
13,1748.610390799348
14,8.456199333589103
15,8.992117462835985
16,9.882182721742879
17,-0.2689626937349203
18,8.440811986884578
2,1, 1, 1, 0,14, 0.00,15.00,Tuesday
7,-1.9250000000000003
8,1428.4368474723443
9,1.0
10,210.73276284570657
11,1.0
12,210.73276284570657
13,1428.4368474723443
14,8.31535012357758
15,7.444220097541249
16,9.306528220319763
17,-0.32863951188591047
18,8.40051181197554
2,1, 1, 1, 0,14,15.00,30.00,Tuesday
7,-1.6500000000000002
8,1268.9130128286689
9,1.0
10,189.38488290342594
11,1.0
12,189.38488290342594
13,1268.9130128286689
14,8.290508466176924
15,7.044475496352695
16,9.021268791537637
17,-0.19258669346868374
18,8.364043479783252
2,1, 1, 1, 0,14,30.00,45.00,Tuesday
7,-1.375
8,1210.1839078162066
9,1.0
10,179.3940297802914
11,1.0
12,179.3940297802914
13,1210.1839078162066
14,8.280839714574178
15,7.1663236507020049
16,8.943431811653
17,0.04667739905846702
18,8.33342891186412
2,1, 1, 1, 0,14,45.00,60.00,Tuesday
7,-1.1
8,1150.7838549837705
9,1.0
10,169.43349014176136
11,1.0
12,169.43349014176136
13,1150.7838549837705
14,8.269305125216239
15,7.265827911453206
16,8.857548384986558
17,0.2846115809070966
18,8.308365905416315
2,1, 1, 1, 0,15, 0.00,15.00,Tuesday
7,-1.1
8,1211.2722036175777
9,1.0
10,178.15692317953907
11,1.0
12,178.15692317953907
13,1211.2722036175777
14,8.326719270269587
15,8.08356568173053
16,8.984766584646536
17,0.4075594541947112
18,8.29257617861107
2,1, 1, 1, 0,15,15.00,30.00,Tuesday
7,-1.1
8,1137.9569692377798
9,1.0
10,166.40516310952945
11,1.0
12,166.40516310952945
13,1137.9569692377798
14,8.279078888017463
15,7.721129691018459
16,8.838335640021569
17,0.34917027731830788
18,8.280105019174237
2,1, 1, 1, 0,15,30.00,45.00,Tuesday
7,-1.1
8,959.5048700077512
9,1.0
10,140.8967369711617
11,1.0
12,140.8967369711617
13,959.5048700077512
14,8.159298748937124
15,6.506414515519169
16,8.434313769237292
17,0.12232108165528644
18,8.258524447372496
2,1, 1, 1, 0,15,45.00,60.00,Tuesday
7,-1.1
8,789.5943100591383
9,1.0
10,116.57355796743004
11,1.0
12,116.57355796743004
13,789.5943100591383
14,8.0599491117301
15,5.309953287499707
16,8.00751416820026
17,-0.11140003387384923
18,8.21975875250997
2,1, 1, 1, 0,16, 0.00,15.00,Tuesday
7,-1.1
8,626.6670946064958
9,1.0
10,93.14939272689483
11,1.0
12,93.14939272689483
13,626.6670946064958
14,7.956733792397399
15,4.257950424354564
16,7.628538999332022
17,-0.2622612697932709
18,8.163068223257288
2,1, 1, 1, 0,16,15.00,30.00,Tuesday
7,-1.1
8,389.0360678411529
9,1.0
10,57.94047897402063
11,1.0
12,57.94047897402063
13,389.0360678411529
14,7.7683195325561089
15,2.135066324960028
16,7.0761741591676359
17,-0.569372158856595
18,8.081518591831234
2,1, 1, 1, 0,16,30.00,45.00,Tuesday
7,-1.1
8,301.6300334628514
9,1.0
10,45.38251793443488
11,1.0
12,45.38251793443488
13,301.6300334628514
14,7.692376534184411
15,1.5252296905307837
16,6.82930135532979
17,-0.6321351160618178
18,7.9859095345433259
2,1, 1, 1, 0,16,45.00,60.00,Tuesday
7,-1.1
8,210.55774644166127
9,1.0
10,32.02625108222755
11,1.0
12,32.02625108222755
13,210.55774644166127
14,7.579479547250962
15,0.6632702100069163
16,6.5973888446091
17,-0.7057868335233479
18,7.890637071269726
2,1, 1, 1, 0,17, 0.00,15.00,Tuesday
7,-1.1
8,115.49062901598868
9,1.0
10,17.762198626050539
11,1.0
12,17.762198626050539
13,115.49062901598868
14,7.439881021733886
15,-0.5862699283484355
16,6.3158468597242749
17,-0.9019285620162236
18,7.796215656885363
2,1, 1, 1, 0,17,15.00,30.00,Tuesday
7,-1.1
8,0.0
9,0.0
10,0.0
11,0.0
12,0.0
13,0.0
14,7.253021950786419
15,-2.4225540485625016
16,5.969247380798151
17,-1.183394417710133
18,7.691256975943662
2,1, 1, 1, 0,17,30.00,45.00,Tuesday
7,-1.1
8,0.0
9,0.0
10,0.0
11,0.0
12,0.0
13,0.0
14,7.196048381229748
15,-2.557732392486385
16,5.867473238642333
17,-1.2135583362137368
18,7.589414192730534
2,1, 1, 1, 0,17,45.00,60.00,Tuesday
7,-1.1
8,0.0
9,0.0
10,0.0
11,0.0
12,0.0
13,0.0
14,7.124241890207724
15,-2.7471884577389624
16,5.809034173183704
17,-1.2383144424165949
18,7.503613284107151
2,1, 1, 1, 0,18, 0.00,15.00,Tuesday
7,-1.25
8,0.0
9,0.0
10,0.0
11,0.0
12,0.0
13,0.0
14,7.0640257532819918
15,-2.8952068059143167
16,5.726222139508877
17,-1.384172868738517
18,7.434781789871898
2,1, 1, 1, 0,18,15.00,30.00,Tuesday
7,-1.4
8,0.0
9,0.0
10,0.0
11,0.0
12,0.0
13,0.0
14,7.009114411664853
15,-3.047597639040309
16,5.655209319429787
17,-1.518075798358268
18,7.377901287407647
2,1, 1, 1, 0,18,30.00,45.00,Tuesday
7,-1.5499999999999999
8,0.0
9,0.0
10,0.0
11,0.0
12,0.0
13,0.0
14,6.958446653130712
15,-3.1995427467977834
16,5.5838533190018329
17,-1.656564375833284
18,7.327638098300487
2,1, 1, 1, 0,18,45.00,60.00,Tuesday
7,-1.7
8,0.0
9,0.0
10,0.0
11,0.0
12,0.0
13,0.0
14,6.909979841422646
15,-3.3516562718475968
16,5.521529602731675
17,-1.78746632157754
18,7.28060384886539
2,1, 1, 1, 0,19, 0.00,15.00,Tuesday
7,-1.825
8,0.0
9,0.0
10,0.0
11,0.0
12,0.0
13,0.0
14,6.886467227685923
15,-3.20661137198261
16,5.470896874751531
17,-1.875224501893399
18,7.238805201863459
2,1, 1, 1, 0,19,15.00,30.00,Tuesday
7,-1.9500000000000002
8,0.0
9,0.0
10,0.0
11,0.0
12,0.0
13,0.0
14,6.8619117878212469
15,-3.142601630814193
16,5.424699979469551
17,-1.9763643488425942
18,7.203970424923541
2,1, 1, 1, 0,19,30.00,45.00,Tuesday
7,-2.075
8,0.0
9,0.0
10,0.0
11,0.0
12,0.0
13,0.0
14,6.832973783620809
15,-3.2171229148856317
16,5.382221485679565
17,-2.082720005696558
18,7.174467193709272
2,1, 1, 1, 0,19,45.00,60.00,Tuesday
7,-2.2
8,0.0
9,0.0
10,0.0
11,0.0
12,0.0
13,0.0
14,6.807072106580573
15,-3.197365417868743
16,5.339664112972514
17,-2.1894797653854995
18,7.147242825066213
2,1, 1, 1, 0,20, 0.00,15.00,Tuesday
7,-1.9250000000000003
8,0.0
9,0.0
10,0.0
11,0.0
12,0.0
13,0.0
14,6.796506046253271
15,-2.8967841171800909
16,5.365207529458871
17,-1.9639195571536448
18,7.122396073924248
2,1, 1, 1, 0,20,15.00,30.00,Tuesday
7,-1.6500000000000002
8,0.0
9,0.0
10,0.0
11,0.0
12,0.0
13,0.0
14,6.78634160675216
15,-2.59914374890127
16,5.392663938196506
17,-1.7267338668183357
18,7.1003693704585679
2,1, 1, 1, 0,20,30.00,45.00,Tuesday
7,-1.375
8,0.0
9,0.0
10,0.0
11,0.0
12,0.0
13,0.0
14,6.778766662946337
15,-2.30276464467138
16,5.421537516258752
17,-1.4877760074232925
18,7.080999913019198
2,1, 1, 1, 0,20,45.00,60.00,Tuesday
7,-1.1
8,0.0
9,0.0
10,0.0
11,0.0
12,0.0
13,0.0
14,6.771618988565398
15,-2.007663126181292
16,5.452483141209086
17,-1.2472334343442527
18,7.063670448615389
2,1, 1, 1, 0,21, 0.00,15.00,Tuesday
7,-1.25
8,0.0
9,0.0
10,0.0
11,0.0
12,0.0
13,0.0
14,6.723249557218357
15,-2.28615141452048
16,5.409598018392785
17,-1.3692962372193734
18,7.041697994236556
2,1, 1, 1, 0,21,15.00,30.00,Tuesday
7,-1.4
8,0.0
9,0.0
10,0.0
11,0.0
12,0.0
13,0.0
14,6.676553667299212
15,-2.5012750714498828
16,5.356271223900876
17,-1.493289726334524
18,7.010552628485868
2,1, 1, 1, 0,21,30.00,45.00,Tuesday
7,-1.5499999999999999
8,0.0
9,0.0
10,0.0
11,0.0
12,0.0
13,0.0
14,6.616437343771588
15,-2.8421051172858848
16,5.299548143392883
17,-1.620521872874292
18,6.969355767051449
2,1, 1, 1, 0,21,45.00,60.00,Tuesday
7,-1.7
8,0.0
9,0.0
10,0.0
11,0.0
12,0.0
13,0.0
14,6.550838053133367
15,-3.2899943174749279
16,5.2318151965884
17,-1.7507655546057777
18,6.920222601886162
2,1, 1, 1, 0,22, 0.00,15.00,Tuesday
7,-1.5499999999999999
8,0.0
9,0.0
10,0.0
11,0.0
12,0.0
13,0.0
14,6.5529868136159
15,-2.8071629884889557
16,5.214753642799451
17,-1.6344244407412135
18,6.8768822715474668
2,1, 1, 1, 0,22,15.00,30.00,Tuesday
7,-1.4
8,0.0
9,0.0
10,0.0
11,0.0
12,0.0
13,0.0
14,6.54521758733512
15,-2.4801890222188507
16,5.224043050714499
17,-1.5085317271317536
18,6.846664811618627
2,1, 1, 1, 0,22,30.00,45.00,Tuesday
7,-1.25
8,0.0
9,0.0
10,0.0
11,0.0
12,0.0
13,0.0
14,6.536449994624673
15,-2.261499664096477
16,5.233998772007908
17,-1.3840964664594254
18,6.827147393531046
2,1, 1, 1, 0,22,45.00,60.00,Tuesday
7,-1.1
8,0.0
9,0.0
10,0.0
11,0.0
12,0.0
13,0.0
14,6.53173117085597
15,-1.9815346379457209
16,5.248219802913695
17,-1.2511431690357995
18,6.813023320724253
2,1, 1, 1, 0,23, 0.00,15.00,Tuesday
7,-1.25
8,0.0
9,0.0
10,0.0
11,0.0
12,0.0
13,0.0
14,6.48325163011259
15,-2.284829197978571
16,5.174322376890018
17,-1.5399367168794243
18,6.793946841298239
2,1, 1, 1, 0,23,15.00,30.00,Tuesday
7,-1.4
8,0.0
9,0.0
10,0.0
11,0.0
12,0.0
13,0.0
14,6.437776387289905
15,-2.589412308274916
16,5.086988190898296
17,-1.8431165187923285
18,6.764894249868965
2,1, 1, 1, 0,23,30.00,45.00,Tuesday
7,-1.5499999999999999
8,0.0
9,0.0
10,0.0
11,0.0
12,0.0
13,0.0
14,6.387662040366212
15,-2.8946646801894828
16,4.998312683099812
17,-2.146494444910843
18,6.727024494105321
2,1, 1, 1, 0,23,45.00,60.00,Tuesday
7,-1.7
8,0.0
9,0.0
10,0.0
11,0.0
12,0.0
13,0.0
14,6.3337388229870259
15,-3.2002574864778396
16,4.905809261563093
17,-2.450127784013489
18,6.6832772823196679
2,1, 1, 1, 0,24, 0.00,15.00,Tuesday
7,-1.7
8,0.0
9,0.0
10,0.0
11,0.0
12,0.0
13,0.0
14,6.295618859277738
15,-3.2543257382889529
16,4.8573320896011868
17,-2.5119205597034126
18,6.638990447072224
2,1, 1, 1, 0,24,15.00,30.00,Tuesday
7,-1.7
8,0.0
9,0.0
10,0.0
11,0.0
12,0.0
13,0.0
14,6.255373299901179
15,-3.3089971563985145
16,4.813540467715541
17,-2.5736493950658998
18,6.597044072109391
2,1, 1, 1, 0,24,30.00,45.00,Tuesday
7,-1.7
8,0.0
9,0.0
10,0.0
11,0.0
12,0.0
13,0.0
14,6.216130324312335
15,-3.363563663389006
16,4.7695257729529889
17,-2.6354752938104299
18,6.557453898875942
2,1, 1, 1, 0,24,45.00,60.00,Tuesday
7,-1.7
8,0.0
9,0.0
10,0.0
11,0.0
12,0.0
13,0.0
14,6.177646694196932
15,-3.4181329660681869
16,4.726384987023721
17,-2.69708378134726
18,6.51926729061735
End of Data
 Number of Records Written=        1152
