Program Version,EnergyPlus, Version 9.5.0-de239b2e5f, YMD=2023.02.17 18:12
1,5,Environment Title[],Latitude[deg],Longitude[deg],Time Zone[],Elevation[m]
2,8,Day of Simulation[],Month[],Day of Month[],DST Indicator[1=yes 0=no],Hour[],StartMinute[],EndMinute[],DayType
3,5,Cumulative Day of Simulation[],Month[],Day of Month[],DST Indicator[1=yes 0=no],DayType  ! When Daily Report Variables Requested
4,2,Cumulative Days of Simulation[],Month[]  ! When Monthly Report Variables Requested
5,1,Cumulative Days of Simulation[] ! When Run Period Report Variables Requested
6,1,Calendar Year of Simulation[] ! When Annual Report Variables Requested
7,1,Environment,Site Outdoor Air Drybulb Temperature [C] !TimeStep
8,1,ZONE ONE,Zone Windows Total Transmitted Solar Radiation Rate [W] !TimeStep
9,1,ZN001:WALL001,Surface Outside Face Sunlit Fraction [] !TimeStep
10,1,ZN001:WALL001,Surface Outside Face Incident Solar Radiation Rate per Area [W/m2] !TimeStep
11,1,ZN001:WALL001:WIN001,Surface Outside Face Sunlit Fraction [] !TimeStep
12,1,ZN001:WALL001:WIN001,Surface Outside Face Incident Solar Radiation Rate per Area [W/m2] !TimeStep
13,1,ZN001:WALL001:WIN001,Surface Window Transmitted Solar Radiation Rate [W] !TimeStep
14,1,ZN001:WALL001,Surface Inside Face Temperature [C] !TimeStep
15,1,ZN001:WALL001,Surface Outside Face Temperature [C] !TimeStep
16,1,ZN001:WALL001:WIN001,Surface Inside Face Temperature [C] !TimeStep
17,1,ZN001:WALL001:WIN001,Surface Outside Face Temperature [C] !TimeStep
18,1,ZONE ONE,Zone Mean Air Temperature [C] !TimeStep
End of Data Dictionary
1,RUN PERIOD 1,  41.98, -87.92,  -6.00, 201.00
2,1, 1, 1, 0, 1, 0.00,15.00,Tuesday
7,-4.324999999999999
8,0.0
9,0.0
10,0.0
11,0.0
12,0.0
13,0.0
14,2.4549946057244425
15,-5.959238476031062
16,0.7412726445247699
17,-4.967800365977041
18,2.8268916141871478
2,1, 1, 1, 0, 1,15.00,30.00,Tuesday
7,-6.949999999999999
8,0.0
9,0.0
10,0.0
11,0.0
12,0.0
13,0.0
14,2.279583882280243
15,-8.427091602509213
16,0.12605996943750598
17,-7.055543306788081
18,2.7399412722391518
2,1, 1, 1, 0, 1,30.00,45.00,Tuesday
7,-9.575
8,0.0
9,0.0
10,0.0
11,0.0
12,0.0
13,0.0
14,2.083207211933955
15,-10.903271649199441
16,-0.4916483613898208
17,-9.149858784429398
18,2.620237695756593
2,1, 1, 1, 0, 1,45.00,60.00,Tuesday
7,-12.2
8,0.0
9,0.0
10,0.0
11,0.0
12,0.0
13,0.0
14,1.8712498544336585
15,-13.3859661865416
16,-1.1234169838355684
17,-11.252334128160669
18,2.4771288445218828
2,1, 1, 1, 0, 2, 0.00,15.00,Tuesday
7,-12.075
8,0.0
9,0.0
10,0.0
11,0.0
12,0.0
13,0.0
14,1.813438293001548
15,-13.187470262928337
16,-1.1859321830514774
17,-11.102898572778713
18,2.347697157968693
2,1, 1, 1, 0, 2,15.00,30.00,Tuesday
7,-11.95
8,0.0
9,0.0
10,0.0
11,0.0
12,0.0
13,0.0
14,1.7411148249263143
15,-13.010201331953136
16,-1.2099578331329895
17,-10.955547768581085
18,2.2497790003742028
2,1, 1, 1, 0, 2,30.00,45.00,Tuesday
7,-11.825
8,0.0
9,0.0
10,0.0
11,0.0
12,0.0
13,0.0
14,1.6857511601758977
15,-12.831741076804413
16,-1.228926901326588
17,-10.80781998537509
18,2.1788987693865939
2,1, 1, 1, 0, 2,45.00,60.00,Tuesday
7,-11.7
8,0.0
9,0.0
10,0.0
11,0.0
12,0.0
13,0.0
14,1.6417439766672307
15,-12.653343551808467
16,-1.235280872887074
17,-10.657432156549533
18,2.124428720338456
2,1, 1, 1, 0, 3, 0.00,15.00,Tuesday
7,-11.549999999999999
8,0.0
9,0.0
10,0.0
11,0.0
12,0.0
13,0.0
14,1.5994498991030919
15,-12.52860255710016
16,-1.233627082888347
17,-10.5269408335962
18,2.077377870931782
2,1, 1, 1, 0, 3,15.00,30.00,Tuesday
7,-11.399999999999999
8,0.0
9,0.0
10,0.0
11,0.0
12,0.0
13,0.0
14,1.560591258329297
15,-12.40528512119893
16,-1.2327919328222379
17,-10.388134694096266
18,2.033048315300224
2,1, 1, 1, 0, 3,30.00,45.00,Tuesday
7,-11.25
8,0.0
9,0.0
10,0.0
11,0.0
12,0.0
13,0.0
14,1.5227523944149724
15,-12.283562520332096
16,-1.2304850241013128
17,-10.248535777620532
18,1.9899051465743754
2,1, 1, 1, 0, 3,45.00,60.00,Tuesday
7,-11.1
8,0.0
9,0.0
10,0.0
11,0.0
12,0.0
13,0.0
14,1.4854590582810408
15,-12.163495012319372
16,-1.227536410817038
17,-10.109130858094204
18,1.9476541792074776
2,1, 1, 1, 0, 4, 0.00,15.00,Tuesday
7,-11.1
8,0.0
9,0.0
10,0.0
11,0.0
12,0.0
13,0.0
14,1.444566671758271
15,-12.133144037595962
16,-1.2722895606141265
17,-10.125933765159573
18,1.905437119929411
2,1, 1, 1, 0, 4,15.00,30.00,Tuesday
7,-11.1
8,0.0
9,0.0
10,0.0
11,0.0
12,0.0
13,0.0
14,1.404078495989642
15,-12.103968350868067
16,-1.3116619310100646
17,-10.149804496722823
18,1.8629169012775196
2,1, 1, 1, 0, 4,30.00,45.00,Tuesday
7,-11.1
8,0.0
9,0.0
10,0.0
11,0.0
12,0.0
13,0.0
14,1.3634470195109075
15,-12.076416048030822
16,-1.350311699404756
17,-10.173620128741903
18,1.820173407843081
2,1, 1, 1, 0, 4,45.00,60.00,Tuesday
7,-11.1
8,0.0
9,0.0
10,0.0
11,0.0
12,0.0
13,0.0
14,1.3227537700865962
15,-12.050353587115558
16,-1.388767560154406
17,-10.196738281027024
18,1.777374182912747
2,1, 1, 1, 0, 5, 0.00,15.00,Tuesday
7,-10.975
8,0.0
9,0.0
10,0.0
11,0.0
12,0.0
13,0.0
14,1.2877486110793673
15,-11.928154611966308
16,-1.3923271330482408
17,-10.10845840622585
18,1.7356280445019413
2,1, 1, 1, 0, 5,15.00,30.00,Tuesday
7,-10.85
8,0.0
9,0.0
10,0.0
11,0.0
12,0.0
13,0.0
14,1.2529313347100029
15,-11.806047989950184
16,-1.3977096927236517
17,-10.012355875524009
18,1.6954053953511619
2,1, 1, 1, 0, 5,30.00,45.00,Tuesday
7,-10.725
8,0.0
9,0.0
10,0.0
11,0.0
12,0.0
13,0.0
14,1.2190746861398532
15,-11.68392062903222
16,-1.4028397604488987
17,-9.915419595358913
18,1.6565103820193592
2,1, 1, 1, 0, 5,45.00,60.00,Tuesday
7,-10.6
8,0.0
9,0.0
10,0.0
11,0.0
12,0.0
13,0.0
14,1.1860306304151425
15,-11.561803141042138
16,-1.4072197477162263
17,-9.818257064683167
18,1.6185911284661643
2,1, 1, 1, 0, 6, 0.00,15.00,Tuesday
7,-10.6
8,0.0
9,0.0
10,0.0
11,0.0
12,0.0
13,0.0
14,1.145729588176523
15,-11.562625452573654
16,-1.4385510796172412
17,-9.820525738290258
18,1.5801644464763123
2,1, 1, 1, 0, 6,15.00,30.00,Tuesday
7,-10.6
8,0.0
9,0.0
10,0.0
11,0.0
12,0.0
13,0.0
14,1.1060446973969165
15,-11.563364432159109
16,-1.4716173003343443
17,-9.8262766406109
18,1.5404408780233856
2,1, 1, 1, 0, 6,30.00,45.00,Tuesday
7,-10.6
8,0.0
9,0.0
10,0.0
11,0.0
12,0.0
13,0.0
14,1.0658334500615173
15,-11.564147153046588
16,-1.504612647847523
17,-9.832818564950685
18,1.49960746535462
2,1, 1, 1, 0, 6,45.00,60.00,Tuesday
7,-10.6
8,0.0
9,0.0
10,0.0
11,0.0
12,0.0
13,0.0
14,1.0252323680436009
15,-11.564930063095558
16,-1.5403469703061319
17,-9.837726931409236
18,1.4580615021112769
2,1, 1, 1, 0, 7, 0.00,15.00,Tuesday
7,-10.6
8,0.0
9,0.0
10,0.0
11,0.0
12,0.0
13,0.0
14,0.9867566108482138
15,-11.539902081564124
16,-1.5778304222228599
17,-9.856453534290438
18,1.416581073358929
2,1, 1, 1, 0, 7,15.00,30.00,Tuesday
7,-10.6
8,0.0
9,0.0
10,0.0
11,0.0
12,0.0
13,0.0
14,0.948093246401444
15,-11.516170645684655
16,-1.61365307671673
17,-9.875383363160723
18,1.375601644284466
2,1, 1, 1, 0, 7,30.00,45.00,Tuesday
7,-10.6
8,0.0
9,0.0
10,0.0
11,0.0
12,0.0
13,0.0
14,0.90970144711423
15,-11.493641143131015
16,-1.6491440359822037
17,-9.893799536983409
18,1.3351287078812402
2,1, 1, 1, 0, 7,45.00,60.00,Tuesday
7,-10.6
8,0.0
9,0.0
10,0.0
11,0.0
12,0.0
13,0.0
14,0.8716026338303923
15,-11.472243194054464
16,-1.6842155808813005
17,-9.91157581003273
18,1.2950365871710459
2,1, 1, 1, 0, 8, 0.00,15.00,Tuesday
7,-10.45
8,0.0
9,0.0
10,0.0
11,0.0
12,0.0
13,0.0
14,0.8326493422705238
15,-11.42423070597515
16,-1.6991899598912142
17,-9.866663965708426
18,1.2549017146932838
2,1, 1, 1, 0, 8,15.00,30.00,Tuesday
7,-10.3
8,92.41243218373902
9,1.0
10,22.819555959623899
11,1.0
12,22.819555959623899
13,92.41243218373902
14,0.9024538005215205
15,-9.751264298695677
16,-1.3143453923215703
17,-9.48621608778899
18,1.2303059260640868
2,1, 1, 1, 0, 8,30.00,45.00,Tuesday
7,-10.15
8,455.08448443819648
9,1.0
10,109.75755355442667
11,1.0
12,109.75755355442667
13,455.08448443819648
14,1.268029021930957
15,-3.389953307696137
16,0.2742231702330855
17,-8.143761765019577
18,1.263893608391234
2,1, 1, 1, 0, 8,45.00,60.00,Tuesday
7,-10.0
8,831.2479452520648
9,1.0
10,195.8764694434918
11,1.0
12,195.8764694434918
13,831.2479452520648
14,1.7540190392426989
15,3.1256695622271275
16,2.026773605912581
17,-6.804082643786614
18,1.3598696406947873
2,1, 1, 1, 0, 9, 0.00,15.00,Tuesday
7,-9.725
8,1209.738766369398
9,1.0
10,278.97248314719988
11,1.0
12,278.97248314719988
13,1209.738766369398
14,2.083621865551436
15,8.276028598944614
16,3.586710137480736
17,-5.6480282921712618
18,1.5054892311402207
2,1, 1, 1, 0, 9,15.00,30.00,Tuesday
7,-9.45
8,1612.2372048379389
9,1.0
10,364.91995730569456
11,1.0
12,364.91995730569456
13,1612.2372048379389
14,2.473740770536334
15,13.361248995732412
16,5.124117397397299
17,-4.505604405934321
18,1.6924959821445072
2,1, 1, 1, 0, 9,30.00,45.00,Tuesday
7,-9.175
8,1883.0330237849228
9,1.0
10,420.35879993239237
11,1.0
12,420.35879993239237
13,1883.0330237849228
14,2.7389306189448248
15,16.119715050343364
16,6.137158872020223
17,-3.809877106888166
18,1.9011834929498087
2,1, 1, 1, 0, 9,45.00,60.00,Tuesday
7,-8.9
8,2165.346234353248
9,1.0
10,478.00138373643099
11,1.0
12,478.00138373643099
13,2165.346234353248
14,3.052329171805921
15,19.11526526388921
16,7.15279230686474
17,-3.0875040272815115
18,2.121941311832576
2,1, 1, 1, 0,10, 0.00,15.00,Tuesday
7,-8.350000000000002
8,2454.690310305454
9,1.0
10,536.9185644770597
11,1.0
12,536.9185644770597
13,2454.690310305454
14,3.3073996429530827
15,20.235013518266134
16,8.193110779274662
17,-2.3457064935788596
18,2.357350296035892
2,1, 1, 1, 0,10,15.00,30.00,Tuesday
7,-7.800000000000001
8,2754.6555913106678
9,1.0
10,598.0969199229219
11,1.0
12,598.0969199229219
13,2754.6555913106678
14,3.5875393285216008
15,21.489676071967958
16,9.253187751145902
17,-1.6072436690180894
18,2.6118192340877317
2,1, 1, 1, 0,10,30.00,45.00,Tuesday
7,-7.25
8,2954.470616298882
9,1.0
10,637.6133352894237
11,1.0
12,637.6133352894237
13,2954.470616298882
14,3.7994198293100918
15,21.550930751600736
16,9.997400635736995
17,-1.1049658903715454
18,2.870795859373672
2,1, 1, 1, 0,10,45.00,60.00,Tuesday
7,-6.7
8,3151.4314166294304
9,1.0
10,676.6412284283772
11,1.0
12,676.6412284283772
13,3151.4314166294304
14,4.029873120867309
15,21.7123372232317
16,10.717361435417786
17,-0.6064233640644261
18,3.123753187252009
2,1, 1, 1, 0,11, 0.00,15.00,Tuesday
7,-6.275
8,3344.7919610969495
9,1.0
10,715.0112779846514
11,1.0
12,715.0112779846514
13,3344.7919610969495
14,4.336883413246548
15,23.80982143554941
16,11.47837723272005
17,0.138486071231398
18,3.3736254117407729
2,1, 1, 1, 0,11,15.00,30.00,Tuesday
7,-5.85
8,3533.488939534336
9,1.0
10,752.5077794605232
11,1.0
12,752.5077794605232
13,3533.488939534336
14,4.630619787046476
15,25.744778837107178
16,12.227675084203839
17,0.8613177445803331
18,3.6251445459618489
2,1, 1, 1, 0,11,30.00,45.00,Tuesday
7,-5.425
8,3481.218546106992
9,1.0
10,742.5988714321785
11,1.0
12,742.5988714321785
13,3481.218546106992
14,4.79768938091575
15,25.596606545319035
16,12.333373687430367
17,1.1385546622843208
18,3.862181216277083
2,1, 1, 1, 0,11,45.00,60.00,Tuesday
7,-5.0
8,3404.471036609524
9,1.0
10,727.8169025450712
11,1.0
12,727.8169025450712
13,3404.471036609524
14,4.96045927162973
15,25.367229426459628
16,12.348335559450277
17,1.3801557106961582
18,4.073284005179435
2,1, 1, 1, 0,12, 0.00,15.00,Tuesday
7,-4.575
8,3271.6743097754294
9,1.0
10,700.3759009170325
11,1.0
12,700.3759009170325
13,3271.6743097754294
14,5.070980243653883
15,24.624479579701917
16,12.191585570807036
17,1.548911719595992
18,4.252730014402378
2,1, 1, 1, 0,12,15.00,30.00,Tuesday
7,-4.15
8,3170.983849662012
9,1.0
10,681.6705029034473
11,1.0
12,681.6705029034473
13,3170.983849662012
14,5.201137425982127
15,24.29387558048358
16,12.13842709239833
17,1.7979311949338808
18,4.40795795767438
2,1, 1, 1, 0,12,30.00,45.00,Tuesday
7,-3.7249999999999998
8,2780.230917569969
9,1.0
10,602.01865277251
11,1.0
12,602.01865277251
13,2780.230917569969
14,5.114686652517312
15,21.265471963608268
16,11.248082210930534
17,1.502346623572862
18,4.5197893002343429
2,1, 1, 1, 0,12,45.00,60.00,Tuesday
7,-3.3
8,2268.492895877948
9,1.0
10,493.55004396206007
11,1.0
12,493.55004396206007
13,2268.492895877948
14,4.930546252663679
15,17.086817862158687
16,9.864970562676036
17,0.921021718860402
18,4.568282840457852
2,1, 1, 1, 0,13, 0.00,15.00,Tuesday
7,-3.0249999999999996
8,1867.1482604028709
9,1.0
10,412.335026418112
11,1.0
12,412.335026418112
13,1867.1482604028709
14,4.798517042988435
15,14.242074206399439
16,8.789170329470494
17,0.5247054785270393
18,4.567568033630697
2,1, 1, 1, 0,13,15.00,30.00,Tuesday
7,-2.75
8,1362.5535446566992
9,1.0
10,305.94037763660148
11,1.0
12,305.94037763660148
13,1362.5535446566992
14,4.526947152858423
15,10.068382599670555
16,7.293837879105411
17,-0.13420402185516878
18,4.524343503920357
2,1, 1, 1, 0,13,30.00,45.00,Tuesday
7,-2.475
8,1241.5104067604085
9,1.0
10,281.0763483922329
11,1.0
12,281.0763483922329
13,1241.5104067604085
14,4.509024187809648
15,9.552599942032773
16,6.953170696603593
17,-0.044367317583521529
18,4.46853234642997
2,1, 1, 1, 0,13,45.00,60.00,Tuesday
7,-2.2
8,1122.979568702778
9,1.0
10,256.7721209415886
11,1.0
12,256.7721209415886
13,1122.979568702778
14,4.477738298967531
15,8.94823259272017
16,6.6734737993436969
17,0.06951838305940328
18,4.421633723821055
2,1, 1, 1, 0,14, 0.00,15.00,Tuesday
7,-1.9250000000000003
8,915.8621870682093
9,1.0
10,210.73276284570657
11,1.0
12,210.73276284570657
13,915.8621870682093
14,4.364216556151021
15,7.399545809589691
16,6.02639024362486
17,-0.06977859080348026
18,4.3798720971039339
2,1, 1, 1, 0,14,15.00,30.00,Tuesday
7,-1.6500000000000002
8,810.9035210002768
9,1.0
10,189.38488290342594
11,1.0
12,189.38488290342594
13,810.9035210002768
14,4.3379603860999069
15,6.9932054396987299
16,5.7423866626272119
17,0.02148400756027513
18,4.343335166180811
2,1, 1, 1, 0,14,30.00,45.00,Tuesday
7,-1.375
8,774.1385445110948
9,1.0
10,179.3940297802914
11,1.0
12,179.3940297802914
13,774.1385445110948
14,4.338556999094734
15,7.115027862445557
16,5.661068042440263
17,0.23270038981587505
18,4.313969248104353
2,1, 1, 1, 0,14,45.00,60.00,Tuesday
7,-1.1
8,736.6090810650965
9,1.0
10,169.43349014176136
11,1.0
12,169.43349014176136
13,736.6090810650965
14,4.337256609740511
15,7.212729418379461
16,5.5758161013746989
17,0.44187118720088849
18,4.291611740557754
2,1, 1, 1, 0,15, 0.00,15.00,Tuesday
7,-1.1
8,774.6800055569538
9,1.0
10,178.15692317953907
11,1.0
12,178.15692317953907
13,774.6800055569538
14,4.389395207466188
15,8.028130161085775
16,5.728647053852228
17,0.5857404564780495
18,4.27911669692165
2,1, 1, 1, 0,15,15.00,30.00,Tuesday
7,-1.1
8,727.5486138821375
9,1.0
10,166.40516310952945
11,1.0
12,166.40516310952945
13,727.5486138821375
14,4.349803263943173
15,7.664561321223252
16,5.5528984503354199
17,0.5039343452117464
18,4.270590802985604
2,1, 1, 1, 0,15,30.00,45.00,Tuesday
7,-1.1
8,612.1195818713775
9,1.0
10,140.8967369711617
11,1.0
12,140.8967369711617
13,612.1195818713775
14,4.254753071867577
15,6.4569115902642209
16,5.1144862268129149
17,0.23598538005364845
18,4.2541186806469579
2,1, 1, 1, 0,15,45.00,60.00,Tuesday
7,-1.1
8,502.53358794223757
9,1.0
10,116.57355796743004
11,1.0
12,116.57355796743004
13,502.53358794223757
14,4.145292327624331
15,5.237280494524994
16,4.668185700311142
17,-0.045931528528285529
18,4.222626565080931
2,1, 1, 1, 0,16, 0.00,15.00,Tuesday
7,-1.1
8,397.8589772617206
9,1.0
10,93.14939272689483
11,1.0
12,93.14939272689483
13,397.8589772617206
14,4.061627514241225
15,4.192068480274118
16,4.23181247205946
17,-0.26402728607831707
18,4.17663467089835
2,1, 1, 1, 0,16,15.00,30.00,Tuesday
7,-1.1
8,246.37183324725135
9,1.0
10,57.94047897402063
11,1.0
12,57.94047897402063
13,246.37183324725135
14,3.89208128253548
15,2.062185901179002
16,3.5601796991883818
17,-0.6744638115020507
18,4.111991008245785
2,1, 1, 1, 0,16,30.00,45.00,Tuesday
7,-1.1
8,190.51311101591939
9,1.0
10,45.38251793443488
11,1.0
12,45.38251793443488
13,190.51311101591939
14,3.8297245764682596
15,1.4464997586492976
16,3.2980804318154925
17,-0.7846925551998538
18,4.036835348427316
2,1, 1, 1, 0,16,45.00,60.00,Tuesday
7,-1.1
8,132.686615384964
9,1.0
10,32.02625108222755
11,1.0
12,32.02625108222755
13,132.686615384964
14,3.733738573185404
15,0.576746094092214
16,3.036304470213736
17,-0.9134093445829308
18,3.958048132194278
2,1, 1, 1, 0,17, 0.00,15.00,Tuesday
7,-1.1
8,72.66658917427744
9,1.0
10,17.762198626050539
11,1.0
12,17.762198626050539
13,72.66658917427744
14,3.6091277447379839
15,-0.6834151443653229
16,2.717703721000703
17,-1.1750135132137985
18,3.872307635726356
2,1, 1, 1, 0,17,15.00,30.00,Tuesday
7,-1.1
8,0.0
9,0.0
10,0.0
11,0.0
12,0.0
13,0.0
14,3.4350988407371294
15,-2.5246530624697218
16,2.3180330535974464
17,-1.5234269714778748
18,3.7737498353730416
2,1, 1, 1, 0,17,30.00,45.00,Tuesday
7,-1.1
8,0.0
9,0.0
10,0.0
11,0.0
12,0.0
13,0.0
14,3.3856035076587447
15,-2.664374878707648
16,2.227535221584162
17,-1.571395822344698
18,3.6777034347869996
2,1, 1, 1, 0,17,45.00,60.00,Tuesday
7,-1.1
8,0.0
9,0.0
10,0.0
11,0.0
12,0.0
13,0.0
14,3.322014971358368
15,-2.8623920502759887
16,2.170117255661637
17,-1.623499366127021
18,3.5971776698240647
2,1, 1, 1, 0,18, 0.00,15.00,Tuesday
7,-1.25
8,0.0
9,0.0
10,0.0
11,0.0
12,0.0
13,0.0
14,3.2701650997402007
15,-3.0093104330070985
16,2.08669567680613
17,-1.7647789815996476
18,3.5336687861390434
2,1, 1, 1, 0,18,15.00,30.00,Tuesday
7,-1.4
8,0.0
9,0.0
10,0.0
11,0.0
12,0.0
13,0.0
14,3.2233771635959287
15,-3.161672702275071
16,2.0174052067764025
17,-1.894371679965161
18,3.482741969578323
2,1, 1, 1, 0,18,30.00,45.00,Tuesday
7,-1.5499999999999999
8,0.0
9,0.0
10,0.0
11,0.0
12,0.0
13,0.0
14,3.1809694389160576
15,-3.313448269126594
16,1.9522278073283133
17,-2.0235260956243339
18,3.4393297134363389
2,1, 1, 1, 0,18,45.00,60.00,Tuesday
7,-1.7
8,0.0
9,0.0
10,0.0
11,0.0
12,0.0
13,0.0
14,3.1408730733707097
15,-3.465393899892338
16,1.8901872430421918
17,-2.1517303469801165
18,3.399944387079468
2,1, 1, 1, 0,19, 0.00,15.00,Tuesday
7,-1.825
8,0.0
9,0.0
10,0.0
11,0.0
12,0.0
13,0.0
14,3.128936482975748
15,-3.3072513717576088
16,1.852255378587472
17,-2.198782291511691
18,3.3665493176453005
2,1, 1, 1, 0,19,15.00,30.00,Tuesday
7,-1.9500000000000002
8,0.0
9,0.0
10,0.0
11,0.0
12,0.0
13,0.0
14,3.11532365567693
15,-3.231774759581109
16,1.8174491283493808
17,-2.2660435963698548
18,3.3407064488664015
2,1, 1, 1, 0,19,30.00,45.00,Tuesday
7,-2.075
8,0.0
9,0.0
10,0.0
11,0.0
12,0.0
13,0.0
14,3.0968578375705464
15,-3.3031664429917568
16,1.7792253122706825
17,-2.3595548042495126
18,3.3206430975785019
2,1, 1, 1, 0,19,45.00,60.00,Tuesday
7,-2.2
8,0.0
9,0.0
10,0.0
11,0.0
12,0.0
13,0.0
14,3.0805527329608508
15,-3.2732301642859045
16,1.746201896783191
17,-2.4397272874729198
18,3.3031827366802237
2,1, 1, 1, 0,20, 0.00,15.00,Tuesday
7,-1.9250000000000003
8,0.0
9,0.0
10,0.0
11,0.0
12,0.0
13,0.0
14,3.0817213794715587
15,-2.9700726565859356
16,1.7997333171083483
17,-2.2163200352465539
18,3.2884746336944254
2,1, 1, 1, 0,20,15.00,30.00,Tuesday
7,-1.6500000000000002
8,0.0
9,0.0
10,0.0
11,0.0
12,0.0
13,0.0
14,3.08387969571488
15,-2.670172093926121
16,1.8540865701887697
17,-1.9831202241596203
18,3.2770211282384444
2,1, 1, 1, 0,20,30.00,45.00,Tuesday
7,-1.375
8,0.0
9,0.0
10,0.0
11,0.0
12,0.0
13,0.0
14,3.0867394665123837
15,-2.3716581165055095
16,1.9102075039343163
17,-1.7480051698100852
18,3.268433324056387
2,1, 1, 1, 0,20,45.00,60.00,Tuesday
7,-1.1
8,0.0
9,0.0
10,0.0
11,0.0
12,0.0
13,0.0
14,3.0910711263706558
15,-2.0744476332021994
16,1.9679489463578648
17,-1.511285558492773
18,3.261989725514308
2,1, 1, 1, 0,21, 0.00,15.00,Tuesday
7,-1.25
8,0.0
9,0.0
10,0.0
11,0.0
12,0.0
13,0.0
14,3.05045894412699
15,-2.3634778188988756
16,1.9159743446170979
17,-1.6513483690700355
18,3.2510266113358377
2,1, 1, 1, 0,21,15.00,30.00,Tuesday
7,-1.4
8,0.0
9,0.0
10,0.0
11,0.0
12,0.0
13,0.0
14,3.0113392896922885
15,-2.5841723577034898
16,1.8610291753799402
17,-1.7844167879835596
18,3.23079911523067
2,1, 1, 1, 0,21,30.00,45.00,Tuesday
7,-1.5499999999999999
8,0.0
9,0.0
10,0.0
11,0.0
12,0.0
13,0.0
14,2.9581245223456187
15,-2.9388779953970749
16,1.7965522640802192
17,-1.9398494268806986
18,3.2000335997714366
2,1, 1, 1, 0,21,45.00,60.00,Tuesday
7,-1.7
8,0.0
9,0.0
10,0.0
11,0.0
12,0.0
13,0.0
14,2.899532340090528
15,-3.4026108128152288
16,1.7188520294986916
17,-2.120862412082431
18,3.160568980700431
2,1, 1, 1, 0,22, 0.00,15.00,Tuesday
7,-1.5499999999999999
8,0.0
9,0.0
10,0.0
11,0.0
12,0.0
13,0.0
14,2.91369935482717
15,-2.9010684355520195
16,1.738396186598834
17,-1.9556935484926613
18,3.126342006107182
2,1, 1, 1, 0,22,15.00,30.00,Tuesday
7,-1.4
8,0.0
9,0.0
10,0.0
11,0.0
12,0.0
13,0.0
14,2.9191097644963919
15,-2.561396467979781
16,1.7737576639248119
17,-1.8020311052442822
18,3.1051536071441117
2,1, 1, 1, 0,22,30.00,45.00,Tuesday
7,-1.25
8,0.0
9,0.0
10,0.0
11,0.0
12,0.0
13,0.0
14,2.9222734923223259
15,-2.3370498079259187
16,1.804796137774872
17,-1.6678571932997102
18,3.0950531790122768
2,1, 1, 1, 0,22,45.00,60.00,Tuesday
7,-1.1
8,0.0
9,0.0
10,0.0
11,0.0
12,0.0
13,0.0
14,2.929317324797937
15,-2.0468557608773247
16,1.8448369806574193
17,-1.514470861630457
18,3.0909809384033726
2,1, 1, 1, 0,23, 0.00,15.00,Tuesday
7,-1.25
8,0.0
9,0.0
10,0.0
11,0.0
12,0.0
13,0.0
14,2.888968755208159
15,-2.350470564285238
16,1.7574169534814246
17,-1.78645162795425
18,3.0826217978583529
2,1, 1, 1, 0,23,15.00,30.00,Tuesday
7,-1.4
8,0.0
9,0.0
10,0.0
11,0.0
12,0.0
13,0.0
14,2.8511721407902934
15,-2.654997942726431
16,1.6599516118475322
17,-2.076703200961788
18,3.0644339636931838
2,1, 1, 1, 0,23,30.00,45.00,Tuesday
7,-1.5499999999999999
8,0.0
9,0.0
10,0.0
11,0.0
12,0.0
13,0.0
14,2.8093014707310837
15,-2.9601569058631025
16,1.5615011480498425
17,-2.3670993207477979
18,3.037021472652268
2,1, 1, 1, 0,23,45.00,60.00,Tuesday
7,-1.7
8,0.0
9,0.0
10,0.0
11,0.0
12,0.0
13,0.0
14,2.7636733028585378
15,-3.265663651361271
16,1.4596613993965662
17,-2.6580118393960676
18,3.0030898415287305
2,1, 1, 1, 0,24, 0.00,15.00,Tuesday
7,-1.7
8,0.0
9,0.0
10,0.0
11,0.0
12,0.0
13,0.0
14,2.7358311235654746
15,-3.319449164660565
16,1.4182539893472495
17,-2.717918134331967
18,2.96816677888
2,1, 1, 1, 0,24,15.00,30.00,Tuesday
7,-1.7
8,0.0
9,0.0
10,0.0
11,0.0
12,0.0
13,0.0
14,2.704895033523975
15,-3.3740004238722709
16,1.3809015156017495
17,-2.776929044144765
18,2.935353579272644
2,1, 1, 1, 0,24,30.00,45.00,Tuesday
7,-1.7
8,0.0
9,0.0
10,0.0
11,0.0
12,0.0
13,0.0
14,2.6747765127432929
15,-3.4284085748444594
16,1.3429939828047282
17,-2.8361242358324718
18,2.904829714603183
2,1, 1, 1, 0,24,45.00,60.00,Tuesday
7,-1.7
8,0.0
9,0.0
10,0.0
11,0.0
12,0.0
13,0.0
14,2.6453300648955708
15,-3.482817566966161
16,1.3058189285571303
17,-2.895084013067276
18,2.875730961841938
End of Data
 Number of Records Written=        1152
