Program Version,EnergyPlus, Version 9.5.0-de239b2e5f, YMD=2023.02.17 18:12
1,5,Environment Title[],Latitude[deg],Longitude[deg],Time Zone[],Elevation[m]
2,8,Day of Simulation[],Month[],Day of Month[],DST Indicator[1=yes 0=no],Hour[],StartMinute[],EndMinute[],DayType
3,5,Cumulative Day of Simulation[],Month[],Day of Month[],DST Indicator[1=yes 0=no],DayType  ! When Daily Report Variables Requested
4,2,Cumulative Days of Simulation[],Month[]  ! When Monthly Report Variables Requested
5,1,Cumulative Days of Simulation[] ! When Run Period Report Variables Requested
6,1,Calendar Year of Simulation[] ! When Annual Report Variables Requested
7,1,Environment,Site Outdoor Air Drybulb Temperature [C] !TimeStep
8,1,ZONE ONE,Zone Windows Total Transmitted Solar Radiation Rate [W] !TimeStep
9,1,ZN001:WALL001,Surface Outside Face Sunlit Fraction [] !TimeStep
10,1,ZN001:WALL001,Surface Outside Face Incident Solar Radiation Rate per Area [W/m2] !TimeStep
11,1,ZN001:WALL001:WIN001,Surface Outside Face Sunlit Fraction [] !TimeStep
12,1,ZN001:WALL001:WIN001,Surface Outside Face Incident Solar Radiation Rate per Area [W/m2] !TimeStep
13,1,ZN001:WALL001:WIN001,Surface Window Transmitted Solar Radiation Rate [W] !TimeStep
14,1,ZN001:WALL001,Surface Inside Face Temperature [C] !TimeStep
15,1,ZN001:WALL001,Surface Outside Face Temperature [C] !TimeStep
16,1,ZN001:WALL001:WIN001,Surface Inside Face Temperature [C] !TimeStep
17,1,ZN001:WALL001:WIN001,Surface Outside Face Temperature [C] !TimeStep
18,1,ZONE ONE,Zone Mean Air Temperature [C] !TimeStep
End of Data Dictionary
1,RUN PERIOD 1,  41.98, -87.92,  -6.00, 201.00
2,1, 1, 1, 0, 1, 0.00,15.00,Tuesday
7,-4.324999999999999
8,0.0
9,0.0
10,0.0
11,0.0
12,0.0
13,0.0
14,-0.31666125766281535
15,-6.010047770699666
16,-1.4362401220539596
17,-5.497353194393099
18,-0.019254563457944165
2,1, 1, 1, 0, 1,15.00,30.00,Tuesday
7,-6.949999999999999
8,0.0
9,0.0
10,0.0
11,0.0
12,0.0
13,0.0
14,-0.4870785312456122
15,-8.477957544480589
16,-2.033862948117644
17,-7.606554400473897
18,-0.09572007683087489
2,1, 1, 1, 0, 1,30.00,45.00,Tuesday
7,-9.575
8,0.0
9,0.0
10,0.0
11,0.0
12,0.0
13,0.0
14,-0.6781687794781532
15,-10.954710812422942
16,-2.630228238212453
17,-9.722449909746388
18,-0.20555912905365979
2,1, 1, 1, 0, 1,45.00,60.00,Tuesday
7,-12.2
8,0.0
9,0.0
10,0.0
11,0.0
12,0.0
13,0.0
14,-0.8854707116286695
15,-13.437920864623039
16,-3.239514901447251
17,-11.846946206476503
18,-0.34008923827284467
2,1, 1, 1, 0, 2, 0.00,15.00,Tuesday
7,-12.075
8,0.0
9,0.0
10,0.0
11,0.0
12,0.0
13,0.0
14,-0.9326746241024
15,-13.239796532974412
16,-3.3015991819428907
17,-11.705141664896019
18,-0.4625747005865314
2,1, 1, 1, 0, 2,15.00,30.00,Tuesday
7,-11.95
8,0.0
9,0.0
10,0.0
11,0.0
12,0.0
13,0.0
14,-0.9964907831082521
15,-13.062398758422387
16,-3.319232274038086
17,-11.55277967698089
18,-0.5544539534213973
2,1, 1, 1, 0, 2,30.00,45.00,Tuesday
7,-11.825
8,0.0
9,0.0
10,0.0
11,0.0
12,0.0
13,0.0
14,-1.0437021487740528
15,-12.883744175043895
16,-3.3328997629504899
17,-11.400106543854065
18,-0.6192125662040864
2,1, 1, 1, 0, 2,45.00,60.00,Tuesday
7,-11.7
8,0.0
9,0.0
10,0.0
11,0.0
12,0.0
13,0.0
14,-1.0795843903485954
15,-12.705142581810872
16,-3.3340708305140085
17,-11.244958675929979
18,-0.6669211780743111
2,1, 1, 1, 0, 3, 0.00,15.00,Tuesday
7,-11.549999999999999
8,0.0
9,0.0
10,0.0
11,0.0
12,0.0
13,0.0
14,-1.1138444381244138
15,-12.581634323985556
16,-3.330084102354192
17,-11.120043180499806
18,-0.7065370149121122
2,1, 1, 1, 0, 3,15.00,30.00,Tuesday
7,-11.399999999999999
8,0.0
9,0.0
10,0.0
11,0.0
12,0.0
13,0.0
14,-1.144454580281396
15,-12.459598340690088
16,-3.3265728190164056
17,-10.987925957019002
18,-0.7429556402709069
2,1, 1, 1, 0, 3,30.00,45.00,Tuesday
7,-11.25
8,0.0
9,0.0
10,0.0
11,0.0
12,0.0
13,0.0
14,-1.1729012839808369
15,-12.33922011075973
16,-3.321398670381427
17,-10.85534172839283
18,-0.7778054980079129
2,1, 1, 1, 0, 3,45.00,60.00,Tuesday
7,-11.1
8,0.0
9,0.0
10,0.0
11,0.0
12,0.0
13,0.0
14,-1.201746267699368
15,-12.22060146762627
16,-3.3152246899586546
17,-10.723155698305505
18,-0.8115662523382102
2,1, 1, 1, 0, 4, 0.00,15.00,Tuesday
7,-11.1
8,0.0
9,0.0
10,0.0
11,0.0
12,0.0
13,0.0
14,-1.2348420143909953
15,-12.188453780163505
16,-3.347320137869474
17,-10.730175473738086
18,-0.8451406584777789
2,1, 1, 1, 0, 4,15.00,30.00,Tuesday
7,-11.1
8,0.0
9,0.0
10,0.0
11,0.0
12,0.0
13,0.0
14,-1.2665410824822819
15,-12.157517247818442
16,-3.3788806789748948
17,-10.740206222206212
18,-0.8789806517405066
2,1, 1, 1, 0, 4,30.00,45.00,Tuesday
7,-11.1
8,0.0
9,0.0
10,0.0
11,0.0
12,0.0
13,0.0
14,-1.2984413458342168
15,-12.128334149435043
16,-3.406900901230074
17,-10.752120704603954
18,-0.9129216460075648
2,1, 1, 1, 0, 4,45.00,60.00,Tuesday
7,-11.1
8,0.0
9,0.0
10,0.0
11,0.0
12,0.0
13,0.0
14,-1.330397868252081
15,-12.100714317298275
16,-3.4369812722965209
17,-10.76389080708691
18,-0.946895723170419
2,1, 1, 1, 0, 5, 0.00,15.00,Tuesday
7,-10.975
8,0.0
9,0.0
10,0.0
11,0.0
12,0.0
13,0.0
14,-1.3557032707658996
15,-11.97830327699413
16,-3.434998299751328
17,-10.67245312602165
18,-0.9797905559650131
2,1, 1, 1, 0, 5,15.00,30.00,Tuesday
7,-10.85
8,0.0
9,0.0
10,0.0
11,0.0
12,0.0
13,0.0
14,-1.381767045814951
15,-11.856037221714166
16,-3.4340057569263537
17,-10.57333973377996
18,-1.0111840923376603
2,1, 1, 1, 0, 5,30.00,45.00,Tuesday
7,-10.725
8,0.0
9,0.0
10,0.0
11,0.0
12,0.0
13,0.0
14,-1.4068597755573674
15,-11.733715263121175
16,-3.4329830141887784
17,-10.473504581995428
18,-1.0413149411128194
2,1, 1, 1, 0, 5,45.00,60.00,Tuesday
7,-10.6
8,0.0
9,0.0
10,0.0
11,0.0
12,0.0
13,0.0
14,-1.4311942601074897
15,-11.611406940415382
16,-3.43123374647638
17,-10.373463428939715
18,-1.0705341530920066
2,1, 1, 1, 0, 6, 0.00,15.00,Tuesday
7,-10.6
8,0.0
9,0.0
10,0.0
11,0.0
12,0.0
13,0.0
14,-1.463967247681708
15,-11.612095703471344
16,-3.456069248413769
17,-10.37339101713053
18,-1.1003819923371046
2,1, 1, 1, 0, 6,15.00,30.00,Tuesday
7,-10.6
8,0.0
9,0.0
10,0.0
11,0.0
12,0.0
13,0.0
14,-1.4942342513223022
15,-11.612644637566202
16,-3.482718510155564
17,-10.377304218143081
18,-1.1314741164613136
2,1, 1, 1, 0, 6,30.00,45.00,Tuesday
7,-10.6
8,0.0
9,0.0
10,0.0
11,0.0
12,0.0
13,0.0
14,-1.527178384228476
15,-11.61330906134785
16,-3.508728324689173
17,-10.381998335724461
18,-1.1637340200980038
2,1, 1, 1, 0, 6,45.00,60.00,Tuesday
7,-10.6
8,0.0
9,0.0
10,0.0
11,0.0
12,0.0
13,0.0
14,-1.5593267707218952
15,-11.61389290225837
16,-3.535588947600729
17,-10.387253733394346
18,-1.1967134013658392
2,1, 1, 1, 0, 7, 0.00,15.00,Tuesday
7,-10.6
8,0.0
9,0.0
10,0.0
11,0.0
12,0.0
13,0.0
14,-1.5883245341918982
15,-11.587428182530573
16,-3.563595406905847
17,-10.39528123515231
18,-1.2295014506891427
2,1, 1, 1, 0, 7,15.00,30.00,Tuesday
7,-10.6
8,0.0
9,0.0
10,0.0
11,0.0
12,0.0
13,0.0
14,-1.6184911743310953
15,-11.562363727334285
16,-3.5900911513444955
17,-10.403370123575883
18,-1.261717078491573
2,1, 1, 1, 0, 7,30.00,45.00,Tuesday
7,-10.6
8,0.0
9,0.0
10,0.0
11,0.0
12,0.0
13,0.0
14,-1.6483196637475604
15,-11.538529262556276
16,-3.616505854573745
17,-10.411463820195877
18,-1.2934451754315262
2,1, 1, 1, 0, 7,45.00,60.00,Tuesday
7,-10.6
8,0.0
9,0.0
10,0.0
11,0.0
12,0.0
13,0.0
14,-1.6778882955331685
15,-11.515891776299993
16,-3.642576748534566
17,-10.419299957934016
18,-1.3248450173979217
2,1, 1, 1, 0, 8, 0.00,15.00,Tuesday
7,-10.45
8,0.0
9,0.0
10,0.0
11,0.0
12,0.0
13,0.0
14,-1.7095675828213133
15,-11.46882452386641
16,-3.6525549749049448
17,-10.39017122979783
18,-1.356543808286874
2,1, 1, 1, 0, 8,15.00,30.00,Tuesday
7,-10.3
8,43.92919895502562
9,1.0
10,22.819555959623899
11,1.0
12,22.819555959623899
13,43.92919895502562
14,-1.641083857962294
15,-9.796316320047922
16,-3.25450282415801
17,-10.005632042062189
18,-1.3755238085865112
2,1, 1, 1, 0, 8,30.00,45.00,Tuesday
7,-10.15
8,217.30754917639187
9,1.0
10,109.75755355442667
11,1.0
12,109.75755355442667
13,217.30754917639187
14,-1.3037808902117798
15,-3.4428641143343188
16,-1.5818910416248855
17,-8.641107222666279
18,-1.347117805789995
2,1, 1, 1, 0, 8,45.00,60.00,Tuesday
7,-10.0
8,399.4699535945363
9,1.0
10,195.8764694434918
11,1.0
12,195.8764694434918
13,399.4699535945363
14,-0.8901052813060038
15,3.0526917440966057
16,0.1634571798899742
17,-7.303671665462389
18,-1.2653796441398045
2,1, 1, 1, 0, 9, 0.00,15.00,Tuesday
7,-9.725
8,585.1489314874541
9,1.0
10,278.97248314719988
11,1.0
12,278.97248314719988
13,585.1489314874541
14,-0.5788344728839735
15,8.2367796241963
16,1.701607326053363
17,-6.132283769401397
18,-1.1394247499209796
2,1, 1, 1, 0, 9,15.00,30.00,Tuesday
7,-9.45
8,784.787199245388
9,1.0
10,364.91995730569456
11,1.0
12,364.91995730569456
13,784.787199245388
14,-0.24127384076260967
15,13.318804178300331
16,3.235847499199508
17,-4.971779974625633
18,-0.9759119413625785
2,1, 1, 1, 0, 9,30.00,45.00,Tuesday
7,-9.175
8,921.7412871041541
9,1.0
10,420.35879993239237
11,1.0
12,420.35879993239237
13,921.7412871041541
14,-0.015627307745823109
15,16.079391541808133
16,4.244143959688586
17,-4.261413556518846
18,-0.7930530620243498
2,1, 1, 1, 0, 9,45.00,60.00,Tuesday
7,-8.9
8,1065.0474005418728
9,1.0
10,478.00138373643099
11,1.0
12,478.00138373643099
13,1065.0474005418728
14,0.25226037949074739
15,19.075406186101085
16,5.261469135821983
17,-3.521524239074722
18,-0.5980072543197688
2,1, 1, 1, 0,10, 0.00,15.00,Tuesday
7,-8.350000000000002
8,1212.3134782022194
9,1.0
10,536.9185644770597
11,1.0
12,536.9185644770597
13,1212.3134782022194
14,0.457886945233947
15,20.197947196327605
16,6.3095620798719669
17,-2.740667604132966
18,-0.3883330568197913
2,1, 1, 1, 0,10,15.00,30.00,Tuesday
7,-7.800000000000001
8,1365.083720287943
9,1.0
10,598.0969199229219
11,1.0
12,598.0969199229219
13,1365.083720287943
14,0.6860932407226267
15,21.454665700075105
16,7.3785521795342678
17,-1.9655926787655176
18,-0.16742575208233877
2,1, 1, 1, 0,10,30.00,45.00,Tuesday
7,-7.25
8,1468.1999493442264
9,1.0
10,637.6133352894237
11,1.0
12,637.6133352894237
13,1468.1999493442264
14,0.8490959394660984
15,21.517749175437726
16,8.123298579608445
17,-1.4324374787014449
18,0.05124972312656596
2,1, 1, 1, 0,10,45.00,60.00,Tuesday
7,-6.7
8,1569.705828175432
9,1.0
10,676.6412284283772
11,1.0
12,676.6412284283772
13,1569.705828175432
14,1.0253253364272164
15,21.680619208936748
16,8.843405472636391
17,-0.905355264402715
18,0.26021966199511245
2,1, 1, 1, 0,11, 0.00,15.00,Tuesday
7,-6.275
8,1669.2149873773784
9,1.0
10,715.0112779846514
11,1.0
12,715.0112779846514
13,1669.2149873773784
14,1.278916543344001
15,23.77764533287697
16,9.594381551490926
17,-0.14575158061836647
18,0.4635142065360938
2,1, 1, 1, 0,11,15.00,30.00,Tuesday
7,-5.85
8,1766.190944948854
9,1.0
10,752.5077794605232
11,1.0
12,752.5077794605232
13,1766.190944948854
14,1.5169112621563384
15,25.712253490845339
16,10.33141701789441
17,0.589770784209577
18,0.6660052236508661
2,1, 1, 1, 0,11,30.00,45.00,Tuesday
7,-5.425
8,1740.4832380327117
9,1.0
10,742.5988714321785
11,1.0
12,742.5988714321785
13,1740.4832380327117
14,1.6417495990146347
15,25.563912974535268
16,10.39497427737274
17,0.8646852778730363
18,0.8538528052424677
2,1, 1, 1, 0,11,45.00,60.00,Tuesday
7,-5.0
8,1702.0518597121073
9,1.0
10,727.8169025450712
11,1.0
12,727.8169025450712
13,1702.0518597121073
14,1.7633846125678763
15,25.334018947570998
16,10.36625577245627
17,1.1020128239105134
18,1.017845242564155
2,1, 1, 1, 0,12, 0.00,15.00,Tuesday
7,-4.575
8,1635.6982778457269
9,1.0
10,700.3759009170325
11,1.0
12,700.3759009170325
13,1635.6982778457269
14,1.841168087748253
15,24.590865031919465
16,10.161081666918222
17,1.2646242254446634
18,1.1542117271495994
2,1, 1, 1, 0,12,15.00,30.00,Tuesday
7,-4.15
8,1584.1822507707826
9,1.0
10,681.6705029034473
11,1.0
12,681.6705029034473
13,1584.1822507707826
14,1.9364121705614344
15,24.259839570682936
16,10.061972368015973
17,1.5059425585662894
18,1.269419107154081
2,1, 1, 1, 0,12,30.00,45.00,Tuesday
7,-3.7249999999999998
8,1386.7884648429923
9,1.0
10,602.01865277251
11,1.0
12,602.01865277251
13,1386.7884648429923
14,1.8429690379753033
15,21.231289834500879
16,9.096419497347256
17,1.189812205737951
18,1.3484579012733318
2,1, 1, 1, 0,12,45.00,60.00,Tuesday
7,-3.3
8,1130.2896420139664
9,1.0
10,493.55004396206007
11,1.0
12,493.55004396206007
13,1130.2896420139664
14,1.66875778017475
15,17.052187904865347
16,7.644611318618331
17,0.5886850594571911
18,1.376913170961237
2,1, 1, 1, 0,13, 0.00,15.00,Tuesday
7,-3.0249999999999996
8,926.9697700398867
9,1.0
10,412.335026418112
11,1.0
12,412.335026418112
13,926.9697700398867
14,1.5531550766401326
15,14.206737570605915
16,6.51533677969951
17,0.16926157872654813
18,1.3620364016378768
2,1, 1, 1, 0,13,15.00,30.00,Tuesday
7,-2.75
8,673.6692877186736
9,1.0
10,305.94037763660148
11,1.0
12,305.94037763660148
13,673.6692877186736
14,1.327321528793698
15,10.03266889332266
16,4.969094156694837
17,-0.5122983384691224
18,1.3075481455902707
2,1, 1, 1, 0,13,30.00,45.00,Tuesday
7,-2.475
8,612.4821658219637
9,1.0
10,281.0763483922329
11,1.0
12,281.0763483922329
13,612.4821658219637
14,1.306730435018138
15,9.518528898352337
16,4.626279065372955
17,-0.4286238992780227
18,1.2456261931931676
2,1, 1, 1, 0,13,45.00,60.00,Tuesday
7,-2.2
8,552.552520277972
9,1.0
10,256.7721209415886
11,1.0
12,256.7721209415886
13,552.552520277972
14,1.2782653156437658
15,8.911446321552348
16,4.320075766891307
17,-0.3240163097886466
18,1.1963804171660515
2,1, 1, 1, 0,14, 0.00,15.00,Tuesday
7,-1.9250000000000003
8,449.8411357962977
9,1.0
10,210.73276284570657
11,1.0
12,210.73276284570657
13,449.8411357962977
14,1.1888008967248394
15,7.362135579066554
16,3.652264544606851
17,-0.47654209679899398
18,1.1551306692354063
2,1, 1, 1, 0,14,15.00,30.00,Tuesday
7,-1.6500000000000002
8,396.7537665575463
9,1.0
10,189.38488290342594
11,1.0
12,189.38488290342594
13,396.7537665575463
14,1.1697047211751946
15,6.954527774534782
16,3.360524349118009
17,-0.39822642635158447
18,1.121169931303412
2,1, 1, 1, 0,14,30.00,45.00,Tuesday
7,-1.375
8,379.3266897359249
9,1.0
10,179.3940297802914
11,1.0
12,179.3940297802914
13,379.3266897359249
14,1.1765222224127919
15,7.073613947918353
16,3.272014469109763
17,-0.1953287223682878
18,1.0957363750003886
2,1, 1, 1, 0,14,45.00,60.00,Tuesday
7,-1.1
8,361.3465167603399
9,1.0
10,169.43349014176136
11,1.0
12,169.43349014176136
13,361.3465167603399
14,1.1808147631362529
15,7.169846538492198
16,3.1827743492535776
17,0.005508019668354791
18,1.0782900810981893
2,1, 1, 1, 0,15, 0.00,15.00,Tuesday
7,-1.1
8,379.75098608822659
9,1.0
10,178.15692317953907
11,1.0
12,178.15692317953907
13,379.75098608822659
14,1.2240377457803813
15,7.983045324954695
16,3.334691347582975
17,0.1392006966864301
18,1.0704377917853539
2,1, 1, 1, 0,15,15.00,30.00,Tuesday
7,-1.1
8,356.65544888641286
9,1.0
10,166.40516310952945
11,1.0
12,166.40516310952945
13,356.65544888641286
14,1.1946466300799997
15,7.619135602519271
16,3.1521689678373265
17,0.044626477575093307
18,1.0662770178599697
2,1, 1, 1, 0,15,30.00,45.00,Tuesday
7,-1.1
8,299.30897077907687
9,1.0
10,140.8967369711617
11,1.0
12,140.8967369711617
13,299.30897077907687
14,1.1172459517211633
15,6.410551241636379
16,2.7167821902333459
17,-0.24657713429093065
18,1.054440928763684
2,1, 1, 1, 0,15,45.00,60.00,Tuesday
7,-1.1
8,245.01101588106585
9,1.0
10,116.57355796743004
11,1.0
12,116.57355796743004
13,245.01101588106585
14,1.0346084351639605
15,5.197840821685774
16,2.27720735363971
17,-0.5363113138938616
18,1.0289984109668076
2,1, 1, 1, 0,16, 0.00,15.00,Tuesday
7,-1.1
8,193.3619366811613
9,1.0
10,93.14939272689483
11,1.0
12,93.14939272689483
13,193.3619366811613
14,0.9500011637714166
15,4.133868185861116
16,1.8581077931941082
17,-0.7755161741548591
18,0.991242440139395
2,1, 1, 1, 0,16,15.00,30.00,Tuesday
7,-1.1
8,119.36636342751545
9,1.0
10,57.94047897402063
11,1.0
12,57.94047897402063
13,119.36636342751545
14,0.8000623354445922
15,2.002884916584378
16,1.18542107263238
17,-1.2166220495678318
18,0.9391490905952581
2,1, 1, 1, 0,16,30.00,45.00,Tuesday
7,-1.1
8,91.9639739168048
9,1.0
10,45.38251793443488
11,1.0
12,45.38251793443488
13,91.9639739168048
14,0.7500222609884346
15,1.383646352121649
16,0.8981389500448813
17,-1.3716014228112954
18,0.879828031767192
2,1, 1, 1, 0,16,45.00,60.00,Tuesday
7,-1.1
8,63.83988587375654
9,1.0
10,32.02625108222755
11,1.0
12,32.02625108222755
13,63.83988587375654
14,0.6681642848673857
15,0.5074602635781256
16,0.6087195666722209
17,-1.5442607616240594
18,0.8189700950111415
2,1, 1, 1, 0,17, 0.00,15.00,Tuesday
7,-1.1
8,34.880124245395318
9,1.0
10,17.762198626050539
11,1.0
12,17.762198626050539
13,34.880124245395318
14,0.5582825297145824
15,-0.7611275919218723
16,0.27255946707930436
17,-1.8453704215363587
18,0.7539549731801624
2,1, 1, 1, 0,17,15.00,30.00,Tuesday
7,-1.1
8,0.0
9,0.0
10,0.0
11,0.0
12,0.0
13,0.0
14,0.4019181922856284
15,-2.6054802570445054
16,-0.12574363359294694
17,-2.17157345023179
18,0.674745037011095
2,1, 1, 1, 0,17,30.00,45.00,Tuesday
7,-1.1
8,0.0
9,0.0
10,0.0
11,0.0
12,0.0
13,0.0
14,0.3648386597611984
15,-2.748361623393085
16,-0.21292825991099563
17,-2.2507190454624039
18,0.5910836057469017
2,1, 1, 1, 0,17,45.00,60.00,Tuesday
7,-1.1
8,0.0
9,0.0
10,0.0
11,0.0
12,0.0
13,0.0
14,0.3104917364712248
15,-2.9530691462420415
16,-0.26944065503869299
17,-2.336200983280605
18,0.5156512571225916
2,1, 1, 1, 0,18, 0.00,15.00,Tuesday
7,-1.25
8,0.0
9,0.0
10,0.0
11,0.0
12,0.0
13,0.0
14,0.26658592932399308
15,-3.0991612965902197
16,-0.34326617441479359
17,-2.477281376175142
18,0.45418364917380596
2,1, 1, 1, 0,18,15.00,30.00,Tuesday
7,-1.4
8,0.0
9,0.0
10,0.0
11,0.0
12,0.0
13,0.0
14,0.22739707603032506
15,-3.2515665575657377
16,-0.404627164613089
17,-2.603288096415895
18,0.4055629492696559
2,1, 1, 1, 0,18,30.00,45.00,Tuesday
7,-1.5499999999999999
8,0.0
9,0.0
10,0.0
11,0.0
12,0.0
13,0.0
14,0.19146249336252178
15,-3.4032815857477787
16,-0.4645587883755411
17,-2.7346408382221627
18,0.3659649467827295
2,1, 1, 1, 0,18,45.00,60.00,Tuesday
7,-1.7
8,0.0
9,0.0
10,0.0
11,0.0
12,0.0
13,0.0
14,0.15835256933479767
15,-3.5550486091184987
16,-0.5214193446360014
17,-2.865095229442659
18,0.3318838151664167
2,1, 1, 1, 0,19, 0.00,15.00,Tuesday
7,-1.825
8,0.0
9,0.0
10,0.0
11,0.0
12,0.0
13,0.0
14,0.15520838364805349
15,-3.3866841307334369
16,-0.5412321499735526
17,-2.8681268707713345
18,0.3049068868942353
2,1, 1, 1, 0,19,15.00,30.00,Tuesday
7,-1.9500000000000002
8,0.0
9,0.0
10,0.0
11,0.0
12,0.0
13,0.0
14,0.15126342697388479
15,-3.302182852330071
16,-0.5569184810673278
17,-2.8826540407259246
18,0.2862496394570906
2,1, 1, 1, 0,19,30.00,45.00,Tuesday
7,-2.075
8,0.0
9,0.0
10,0.0
11,0.0
12,0.0
13,0.0
14,0.14250277367039689
15,-3.3711223429004937
16,-0.5839756920461241
17,-2.9632590525466186
18,0.2740248438071869
2,1, 1, 1, 0,19,45.00,60.00,Tuesday
7,-2.2
8,0.0
9,0.0
10,0.0
11,0.0
12,0.0
13,0.0
14,0.13622240396927463
15,-3.3331521825162735
16,-0.5966462568932229
17,-3.0003698347158549
18,0.26518305033745456
2,1, 1, 1, 0,20, 0.00,15.00,Tuesday
7,-1.9250000000000003
8,0.0
9,0.0
10,0.0
11,0.0
12,0.0
13,0.0
14,0.14569469221044543
15,-3.0279168789200545
16,-0.5337899448718986
17,-2.756563358580763
18,0.2592483998369863
2,1, 1, 1, 0,20,15.00,30.00,Tuesday
7,-1.6500000000000002
8,0.0
9,0.0
10,0.0
11,0.0
12,0.0
13,0.0
14,0.15743904051384917
15,-2.726099974002732
16,-0.47012807343128318
17,-2.5080607460463399
18,0.25638701911400227
2,1, 1, 1, 0,20,30.00,45.00,Tuesday
7,-1.375
8,0.0
9,0.0
10,0.0
11,0.0
12,0.0
13,0.0
14,0.17046593022269122
15,-2.425807985104307
16,-0.4043090169351444
17,-2.258300412781182
18,0.2562993007856238
2,1, 1, 1, 0,20,45.00,60.00,Tuesday
7,-1.1
8,0.0
9,0.0
10,0.0
11,0.0
12,0.0
13,0.0
14,0.18492939273987578
15,-2.126935527561127
16,-0.33680974810533828
17,-2.0075022861244067
18,0.2584097777676796
2,1, 1, 1, 0,21, 0.00,15.00,Tuesday
7,-1.25
8,0.0
9,0.0
10,0.0
11,0.0
12,0.0
13,0.0
14,0.15358227334914333
15,-2.424525428146379
16,-0.3919990456350888
17,-2.2037721896605264
18,0.25702621783699017
2,1, 1, 1, 0,21,15.00,30.00,Tuesday
7,-1.4
8,0.0
9,0.0
10,0.0
11,0.0
12,0.0
13,0.0
14,0.11913397862600987
15,-2.649697015021475
16,-0.4490696054926957
17,-2.3543735291783038
18,0.24711455539034819
2,1, 1, 1, 0,21,30.00,45.00,Tuesday
7,-1.5499999999999999
8,0.0
9,0.0
10,0.0
11,0.0
12,0.0
13,0.0
14,0.07180203336474792
15,-3.0151350884046246
16,-0.5220009871350158
17,-2.575535350067071
18,0.22659995656449534
2,1, 1, 1, 0,21,45.00,60.00,Tuesday
7,-1.7
8,0.0
9,0.0
10,0.0
11,0.0
12,0.0
13,0.0
14,0.01947127897447277
15,-3.490998345951032
16,-0.6117579059726381
17,-2.8201078563533885
18,0.19660736514406078
2,1, 1, 1, 0,22, 0.00,15.00,Tuesday
7,-1.5499999999999999
8,0.0
9,0.0
10,0.0
11,0.0
12,0.0
13,0.0
14,0.04500221488820223
15,-2.974788895783074
16,-0.5688374087105785
17,-2.5672522776077928
18,0.1707468981734274
2,1, 1, 1, 0,22,15.00,30.00,Tuesday
7,-1.4
8,0.0
9,0.0
10,0.0
11,0.0
12,0.0
13,0.0
14,0.062363739179639308
15,-2.6252086688864
16,-0.5116381285430407
17,-2.35551068289476
18,0.1571740931372797
2,1, 1, 1, 0,22,30.00,45.00,Tuesday
7,-1.25
8,0.0
9,0.0
10,0.0
11,0.0
12,0.0
13,0.0
14,0.07652473139367876
15,-2.3963877373323299
16,-0.4631440458938414
17,-2.2017911516377355
18,0.15461330191952414
2,1, 1, 1, 0,22,45.00,60.00,Tuesday
7,-1.1
8,0.0
9,0.0
10,0.0
11,0.0
12,0.0
13,0.0
14,0.09433748308660857
15,-2.0980907867371227
16,-0.40642724149881817
17,-1.9900494862314986
18,0.1584517499535022
2,1, 1, 1, 0,23, 0.00,15.00,Tuesday
7,-1.25
8,0.0
9,0.0
10,0.0
11,0.0
12,0.0
13,0.0
14,0.062390016674037668
15,-2.4022493836339744
16,-0.4832040745558288
17,-2.2731734537019294
18,0.15953522560123058
2,1, 1, 1, 0,23,15.00,30.00,Tuesday
7,-1.4
8,0.0
9,0.0
10,0.0
11,0.0
12,0.0
13,0.0
14,0.030696507963181284
15,-2.7067650782862708
16,-0.5732841814376002
17,-2.5646336771262669
18,0.152025255701425
2,1, 1, 1, 0,23,30.00,45.00,Tuesday
7,-1.5499999999999999
8,0.0
9,0.0
10,0.0
11,0.0
12,0.0
13,0.0
14,-0.003608548739694829
15,-3.0117716552426194
16,-0.664487118178613
17,-2.856105442375849
18,0.13556226236733236
2,1, 1, 1, 0,23,45.00,60.00,Tuesday
7,-1.7
8,0.0
9,0.0
10,0.0
11,0.0
12,0.0
13,0.0
14,-0.04225810519832058
15,-3.3171604116841779
16,-0.7582630461579356
17,-3.147944888689608
18,0.11209101641518564
2,1, 1, 1, 0,24, 0.00,15.00,Tuesday
7,-1.7
8,0.0
9,0.0
10,0.0
11,0.0
12,0.0
13,0.0
14,-0.06114356609218079
15,-3.370594548410848
16,-0.7924827410679427
17,-3.205251069715814
18,0.08670464021453313
2,1, 1, 1, 0,24,15.00,30.00,Tuesday
7,-1.7
8,0.0
9,0.0
10,0.0
11,0.0
12,0.0
13,0.0
14,-0.08318130147926829
15,-3.4250002732436308
16,-0.8221889874056387
17,-3.262663911128584
18,0.06267870674489425
2,1, 1, 1, 0,24,30.00,45.00,Tuesday
7,-1.7
8,0.0
9,0.0
10,0.0
11,0.0
12,0.0
13,0.0
14,-0.10478999331064673
15,-3.4792684423140098
16,-0.8526756535690652
17,-3.3203917248789596
18,0.04057359680455716
2,1, 1, 1, 0,24,45.00,60.00,Tuesday
7,-1.7
8,0.0
9,0.0
10,0.0
11,0.0
12,0.0
13,0.0
14,-0.12591971441484099
15,-3.533532821541394
16,-0.8826705553901206
17,-3.377961292969303
18,0.019800159748867543
End of Data
 Number of Records Written=        1152
