Program Version,EnergyPlus, Version 9.5.0-de239b2e5f, YMD=2023.02.17 18:13
1,5,Environment Title[],Latitude[deg],Longitude[deg],Time Zone[],Elevation[m]
2,8,Day of Simulation[],Month[],Day of Month[],DST Indicator[1=yes 0=no],Hour[],StartMinute[],EndMinute[],DayType
3,5,Cumulative Day of Simulation[],Month[],Day of Month[],DST Indicator[1=yes 0=no],DayType  ! When Daily Report Variables Requested
4,2,Cumulative Days of Simulation[],Month[]  ! When Monthly Report Variables Requested
5,1,Cumulative Days of Simulation[] ! When Run Period Report Variables Requested
6,1,Calendar Year of Simulation[] ! When Annual Report Variables Requested
7,1,Environment,Site Outdoor Air Drybulb Temperature [C] !TimeStep
8,1,ZONE ONE,Zone Windows Total Transmitted Solar Radiation Rate [W] !TimeStep
9,1,ZN001:WALL001,Surface Outside Face Sunlit Fraction [] !TimeStep
10,1,ZN001:WALL001,Surface Outside Face Incident Solar Radiation Rate per Area [W/m2] !TimeStep
11,1,ZN001:WALL001:WIN001,Surface Outside Face Sunlit Fraction [] !TimeStep
12,1,ZN001:WALL001:WIN001,Surface Outside Face Incident Solar Radiation Rate per Area [W/m2] !TimeStep
13,1,ZN001:WALL001:WIN001,Surface Window Transmitted Solar Radiation Rate [W] !TimeStep
14,1,ZN001:WALL001,Surface Inside Face Temperature [C] !TimeStep
15,1,ZN001:WALL001,Surface Outside Face Temperature [C] !TimeStep
16,1,ZN001:WALL001:WIN001,Surface Inside Face Temperature [C] !TimeStep
17,1,ZN001:WALL001:WIN001,Surface Outside Face Temperature [C] !TimeStep
18,1,ZONE ONE,Zone Mean Air Temperature [C] !TimeStep
End of Data Dictionary
1,RUN PERIOD 1,  41.98, -87.92,  -6.00, 201.00
2,1, 1, 1, 0, 1, 0.00,15.00,Tuesday
7,-4.324999999999999
8,0.0
9,0.0
10,0.0
11,0.0
12,0.0
13,0.0
14,4.408729424101213
15,-5.923647558550779
16,1.3671784536082897
17,-3.897325513327189
18,4.816821916135253
2,1, 1, 1, 0, 1,15.00,30.00,Tuesday
7,-6.949999999999999
8,0.0
9,0.0
10,0.0
11,0.0
12,0.0
13,0.0
14,4.223686243150857
15,-8.391370087772977
16,0.5549898248195291
17,-5.830180817464566
18,4.714220081386682
2,1, 1, 1, 0, 1,30.00,45.00,Tuesday
7,-9.575
8,0.0
9,0.0
10,0.0
11,0.0
12,0.0
13,0.0
14,4.015486454251526
15,-10.867346386604347
16,-0.26213828055483648
17,-7.769009313612173
18,4.57637530465339
2,1, 1, 1, 0, 1,45.00,60.00,Tuesday
7,-12.2
8,0.0
9,0.0
10,0.0
11,0.0
12,0.0
13,0.0
14,3.789107718064146
15,-13.349882479313415
16,-1.0938734181936525
17,-9.716414931002305
18,4.413902717382781
2,1, 1, 1, 0, 2, 0.00,15.00,Tuesday
7,-12.075
8,0.0
9,0.0
10,0.0
11,0.0
12,0.0
13,0.0
14,3.7187979013287606
15,-13.151214373985808
16,-1.1297933158313072
17,-9.580097679810251
18,4.268622123458776
2,1, 1, 1, 0, 2,15.00,30.00,Tuesday
7,-11.95
8,0.0
9,0.0
10,0.0
11,0.0
12,0.0
13,0.0
14,3.633898814247781
15,-12.974209475586348
16,-1.139596179216369
17,-9.46574861730494
18,4.159053133677299
2,1, 1, 1, 0, 2,30.00,45.00,Tuesday
7,-11.825
8,0.0
9,0.0
10,0.0
11,0.0
12,0.0
13,0.0
14,3.5680462989061616
15,-12.795916522714223
16,-1.1467560953274756
17,-9.341498499688669
18,4.078935732900033
2,1, 1, 1, 0, 2,45.00,60.00,Tuesday
7,-11.7
8,0.0
9,0.0
10,0.0
11,0.0
12,0.0
13,0.0
14,3.514481278585505
15,-12.617706937103338
16,-1.1418073260398388
17,-9.211923965078086
18,4.015944637170976
2,1, 1, 1, 0, 3, 0.00,15.00,Tuesday
7,-11.549999999999999
8,0.0
9,0.0
10,0.0
11,0.0
12,0.0
13,0.0
14,3.4631033565264577
15,-12.492175308086085
16,-1.1246707779250756
17,-9.070143467112644
18,3.9603499584709747
2,1, 1, 1, 0, 3,15.00,30.00,Tuesday
7,-11.399999999999999
8,0.0
9,0.0
10,0.0
11,0.0
12,0.0
13,0.0
14,3.415218094906704
15,-12.368038749360008
16,-1.1057586463472263
17,-8.92762680015744
18,3.907386610401076
2,1, 1, 1, 0, 3,30.00,45.00,Tuesday
7,-11.25
8,0.0
9,0.0
10,0.0
11,0.0
12,0.0
13,0.0
14,3.3683782176288674
15,-12.245456073734659
16,-1.0851634873559988
17,-8.784822367347318
18,3.8556350959417267
2,1, 1, 1, 0, 3,45.00,60.00,Tuesday
7,-11.1
8,0.0
9,0.0
10,0.0
11,0.0
12,0.0
13,0.0
14,3.3221681360385308
15,-12.124483644776506
16,-1.0639255189447568
17,-8.642195756461547
18,3.80487977690506
2,1, 1, 1, 0, 4, 0.00,15.00,Tuesday
7,-11.1
8,0.0
9,0.0
10,0.0
11,0.0
12,0.0
13,0.0
14,3.2719003403303135
15,-12.095425089859486
16,-1.125357041783218
17,-8.68271510808637
18,3.7537317460333838
2,1, 1, 1, 0, 4,15.00,30.00,Tuesday
7,-11.1
8,0.0
9,0.0
10,0.0
11,0.0
12,0.0
13,0.0
14,3.2219773364315715
15,-12.067501607609623
16,-1.178334521406839
17,-8.73005816116654
18,3.7017220972805524
2,1, 1, 1, 0, 4,30.00,45.00,Tuesday
7,-11.1
8,0.0
9,0.0
10,0.0
11,0.0
12,0.0
13,0.0
14,3.17169286624606
15,-12.041144980794167
16,-1.2300487223437245
17,-8.77741254746013
18,3.649105337326753
2,1, 1, 1, 0, 4,45.00,60.00,Tuesday
7,-11.1
8,0.0
9,0.0
10,0.0
11,0.0
12,0.0
13,0.0
14,3.121216964356264
15,-12.016218492336423
16,-1.2813933679146317
17,-8.823812387047838
18,3.596254532413596
2,1, 1, 1, 0, 5, 0.00,15.00,Tuesday
7,-10.975
8,0.0
9,0.0
10,0.0
11,0.0
12,0.0
13,0.0
14,3.0766413639535497
15,-11.894233418690698
16,-1.2772410712501597
17,-8.748906767473784
18,3.5447265682578474
2,1, 1, 1, 0, 5,15.00,30.00,Tuesday
7,-10.85
8,0.0
9,0.0
10,0.0
11,0.0
12,0.0
13,0.0
14,3.0323593351786446
15,-11.772320527853811
16,-1.276347412642508
17,-8.666336534376
18,3.4951135693701746
2,1, 1, 1, 0, 5,30.00,45.00,Tuesday
7,-10.725
8,0.0
9,0.0
10,0.0
11,0.0
12,0.0
13,0.0
14,2.989250314221163
15,-11.650381329427996
16,-1.275381219873566
17,-8.58263301562647
18,3.4471199296140195
2,1, 1, 1, 0, 5,45.00,60.00,Tuesday
7,-10.6
8,0.0
9,0.0
10,0.0
11,0.0
12,0.0
13,0.0
14,2.9471119370054725
15,-11.528450663331969
16,-1.273624161716839
17,-8.498530513673927
18,3.400271098907486
2,1, 1, 1, 0, 6, 0.00,15.00,Tuesday
7,-10.6
8,0.0
9,0.0
10,0.0
11,0.0
12,0.0
13,0.0
14,2.89775154785812
15,-11.529429717079005
16,-1.3121939851114349
17,-8.503561946125445
18,3.352749934096458
2,1, 1, 1, 0, 6,15.00,30.00,Tuesday
7,-10.6
8,0.0
9,0.0
10,0.0
11,0.0
12,0.0
13,0.0
14,2.8490296712199605
15,-11.530343143310452
16,-1.3490075441025056
17,-8.514518526593406
18,3.303770288114059
2,1, 1, 1, 0, 6,30.00,45.00,Tuesday
7,-10.6
8,0.0
9,0.0
10,0.0
11,0.0
12,0.0
13,0.0
14,2.799730612446467
15,-11.531300570189137
16,-1.3855096874818856
17,-8.526168640646802
18,3.253643470125228
2,1, 1, 1, 0, 6,45.00,60.00,Tuesday
7,-10.6
8,0.0
9,0.0
10,0.0
11,0.0
12,0.0
13,0.0
14,2.7500900118269007
15,-11.532255984579067
16,-1.4223434500912618
17,-8.53804656913212
18,3.2029393929833445
2,1, 1, 1, 0, 7, 0.00,15.00,Tuesday
7,-10.6
8,0.0
9,0.0
10,0.0
11,0.0
12,0.0
13,0.0
14,2.7024102378490895
15,-11.508250093975092
16,-1.4723244433944274
17,-8.57810057470408
18,3.1522685562756185
2,1, 1, 1, 0, 7,15.00,30.00,Tuesday
7,-10.6
8,0.0
9,0.0
10,0.0
11,0.0
12,0.0
13,0.0
14,2.6545707886654386
15,-11.485493143236287
16,-1.5199151802779625
17,-8.61848018554997
18,3.101973137610927
2,1, 1, 1, 0, 7,30.00,45.00,Tuesday
7,-10.6
8,0.0
9,0.0
10,0.0
11,0.0
12,0.0
13,0.0
14,2.60696997598163
15,-11.463892742756692
16,-1.5668316720975213
17,-8.658017188769805
18,3.052075833992475
2,1, 1, 1, 0, 7,45.00,60.00,Tuesday
7,-10.6
8,0.0
9,0.0
10,0.0
11,0.0
12,0.0
13,0.0
14,2.559636036101195
15,-11.443379754688877
16,-1.6131181409703004
17,-8.696477045404777
18,3.0025039300609928
2,1, 1, 1, 0, 8, 0.00,15.00,Tuesday
7,-10.45
8,0.0
9,0.0
10,0.0
11,0.0
12,0.0
13,0.0
14,2.5118638105989166
15,-11.394803012154818
16,-1.6170270029533072
17,-8.643519371127468
18,2.953207109724411
2,1, 1, 1, 0, 8,15.00,30.00,Tuesday
7,-10.3
8,148.01653406384325
9,1.0
10,22.819555959623899
11,1.0
12,22.819555959623899
13,148.01653406384325
14,2.5846679506357428
15,-9.721305622257738
16,-1.283305698742879
17,-8.285077686165778
18,2.922101623239219
2,1, 1, 1, 0, 8,30.00,45.00,Tuesday
7,-10.15
8,726.7626658810535
9,1.0
10,109.75755355442667
11,1.0
12,109.75755355442667
13,726.7626658810535
14,2.987490599060189
15,-3.3540061842647619
16,0.07705171041226322
17,-7.066078553820375
18,2.95892492857878
2,1, 1, 1, 0, 8,45.00,60.00,Tuesday
7,-10.0
8,1321.5398876203654
9,1.0
10,195.8764694434918
11,1.0
12,195.8764694434918
13,1321.5398876203654
14,3.5063474231245399
15,3.1369905898894849
16,1.5403281293102965
17,-5.819054898011245
18,3.0704047337971955
2,1, 1, 1, 0, 9, 0.00,15.00,Tuesday
7,-9.725
8,1914.2684677032626
9,1.0
10,278.97248314719988
11,1.0
12,278.97248314719988
13,1914.2684677032626
14,3.9021849749924817
15,8.308132162031156
16,3.0220315984112746
17,-4.690218537518319
18,3.234828971936384
2,1, 1, 1, 0, 9,15.00,30.00,Tuesday
7,-9.45
8,2539.072313923231
9,1.0
10,364.91995730569456
11,1.0
12,364.91995730569456
13,2539.072313923231
14,4.331236090495147
15,13.389401405709054
16,4.572878312179057
17,-3.5494263002401
18,3.443429397230856
2,1, 1, 1, 0, 9,30.00,45.00,Tuesday
7,-9.175
8,2952.440164549716
9,1.0
10,420.35879993239237
11,1.0
12,420.35879993239237
13,2952.440164549716
14,4.638461631498214
15,16.147597772671636
16,5.563612927098575
17,-2.8391880026799756
18,3.6749836258739996
2,1, 1, 1, 0, 9,45.00,60.00,Tuesday
7,-8.9
8,3381.5497710085135
9,1.0
10,478.00138373643099
11,1.0
12,478.00138373643099
13,3381.5497710085135
14,4.995844327599759
15,19.142811612283329
16,6.558077140666001
17,-2.115251614099975
18,3.9194054545101086
2,1, 1, 1, 0,10, 0.00,15.00,Tuesday
7,-8.350000000000002
8,3819.72525310092
9,1.0
10,536.9185644770597
11,1.0
12,536.9185644770597
13,3819.72525310092
14,5.298564383390508
15,20.260923583313166
16,7.556144616161475
17,-1.4162660997840249
18,4.17683742209727
2,1, 1, 1, 0,10,15.00,30.00,Tuesday
7,-7.800000000000001
8,4273.038382064532
9,1.0
10,598.0969199229219
11,1.0
12,598.0969199229219
13,4273.038382064532
14,5.628929895574647
15,21.51424593579283
16,8.568574716091007
17,-0.7180950187832877
18,4.453309035308644
2,1, 1, 1, 0,10,30.00,45.00,Tuesday
7,-7.25
8,4570.41705598247
9,1.0
10,637.6133352894237
11,1.0
12,637.6133352894237
13,4570.41705598247
14,5.883615726141274
15,21.574270927078819
16,9.283799849921593
17,-0.24913116166459305
18,4.7426256378503119
2,1, 1, 1, 0,10,45.00,60.00,Tuesday
7,-6.7
8,4863.415499985352
9,1.0
10,676.6412284283772
11,1.0
12,676.6412284283772
13,4863.415499985352
14,6.163117977976683
15,21.734797994682475
16,9.977289995422666
17,0.21705007296463919
18,5.033470539220273
2,1, 1, 1, 0,11, 0.00,15.00,Tuesday
7,-6.275
8,5151.083555253686
9,1.0
10,715.0112779846514
11,1.0
12,715.0112779846514
13,5151.083555253686
14,6.520944725267761
15,23.832697583619987
16,10.761293141387683
17,0.9529322330882906
18,5.327213178171041
2,1, 1, 1, 0,11,15.00,30.00,Tuesday
7,-5.85
8,5431.980261502767
9,1.0
10,752.5077794605232
11,1.0
12,752.5077794605232
13,5431.980261502767
14,6.868946783713154
15,25.768103172580316
16,11.534329610442456
17,1.6719934221103472
18,5.627168307040609
2,1, 1, 1, 0,11,30.00,45.00,Tuesday
7,-5.425
8,5348.498206243613
9,1.0
10,742.5988714321785
11,1.0
12,742.5988714321785
13,5348.498206243613
14,7.078483648424062
15,25.620216289636035
16,11.701398417988799
17,1.9453282119350207
18,5.91438406078497
2,1, 1, 1, 0,11,45.00,60.00,Tuesday
7,-5.0
8,5229.212085323862
9,1.0
10,727.8169025450712
11,1.0
12,727.8169025450712
13,5229.212085323862
14,7.283670600887642
15,25.391360971970007
16,11.783838570543026
17,2.180974416295726
18,6.17483191867803
2,1, 1, 1, 0,12, 0.00,15.00,Tuesday
7,-4.575
8,5024.076099878796
9,1.0
10,700.3759009170325
11,1.0
12,700.3759009170325
13,5024.076099878796
14,7.429740956412218
15,24.649043250931947
16,11.715764832216621
17,2.343908409483447
18,6.400630740572685
2,1, 1, 1, 0,12,15.00,30.00,Tuesday
7,-4.15
8,4871.94122931558
9,1.0
10,681.6705029034473
11,1.0
12,681.6705029034473
13,4871.94122931558
14,7.59686308039377
15,24.318849882244899
16,11.734712123143084
17,2.5801126927735824
18,6.599553010032682
2,1, 1, 1, 0,12,30.00,45.00,Tuesday
7,-3.7249999999999998
8,4277.158639322997
9,1.0
10,602.01865277251
11,1.0
12,602.01865277251
13,4277.158639322997
14,7.521444585753264
15,21.290706865046439
16,10.975882871579529
17,2.2737578555720576
18,6.748821629198192
2,1, 1, 1, 0,12,45.00,60.00,Tuesday
7,-3.3
8,3493.2091881935878
9,1.0
10,493.55004396206007
11,1.0
12,493.55004396206007
13,3493.2091881935878
14,7.330994398030838
15,17.11248353704987
16,9.759354486366306
17,1.6836443891436375
18,6.822559892426212
2,1, 1, 1, 0,13, 0.00,15.00,Tuesday
7,-3.0249999999999996
8,2884.3295946875239
9,1.0
10,412.335026418112
11,1.0
12,412.335026418112
13,2884.3295946875239
14,7.199627478026072
15,14.268373383636373
16,8.79761256605127
17,1.271532379406949
18,6.835589126067463
2,1, 1, 1, 0,13,15.00,30.00,Tuesday
7,-2.75
8,2112.505852962877
9,1.0
10,305.94037763660148
11,1.0
12,305.94037763660148
13,2112.505852962877
14,6.901698890952472
15,10.095553301077425
16,7.4425250152107769
17,0.5989783047756987
18,6.796872258074671
2,1, 1, 1, 0,13,30.00,45.00,Tuesday
7,-2.475
8,1928.6430638732532
9,1.0
10,281.0763483922329
11,1.0
12,281.0763483922329
13,1928.6430638732532
14,6.879546908261657
15,9.583306214330677
16,7.1614708249438199
17,0.6728080575442164
18,6.743605375397613
2,1, 1, 1, 0,13,45.00,60.00,Tuesday
7,-2.2
8,1748.610390799348
9,1.0
10,256.7721209415886
11,1.0
12,256.7721209415886
13,1748.610390799348
14,6.84411978210949
15,8.976069191407288
16,6.942511436919403
17,0.7715371778367626
18,6.6995083750564758
2,1, 1, 1, 0,14, 0.00,15.00,Tuesday
7,-1.9250000000000003
8,1428.4368474723443
9,1.0
10,210.73276284570657
11,1.0
12,210.73276284570657
13,1428.4368474723443
14,6.709833153628825
15,7.428922209142256
16,6.372142841533275
17,0.6284241750192905
18,6.661586961583246
2,1, 1, 1, 0,14,15.00,30.00,Tuesday
7,-1.6500000000000002
8,1268.9130128286689
9,1.0
10,189.38488290342594
11,1.0
12,189.38488290342594
13,1268.9130128286689
14,6.678405326505807
15,7.023294721046021
16,6.150581812317682
17,0.7150539473226445
18,6.629111130734105
2,1, 1, 1, 0,14,30.00,45.00,Tuesday
7,-1.375
8,1210.1839078162066
9,1.0
10,179.3940297802914
11,1.0
12,179.3940297802914
13,1210.1839078162066
14,6.672724199241463
15,7.145360680688165
16,6.138010420711566
17,0.9328677392775262
18,6.60315043547864
2,1, 1, 1, 0,14,45.00,60.00,Tuesday
7,-1.1
8,1150.7838549837705
9,1.0
10,169.43349014176136
11,1.0
12,169.43349014176136
13,1150.7838549837705
14,6.663893938799006
15,7.244112494392359
16,6.11968492739868
17,1.1472510209146095
18,6.583127126957575
2,1, 1, 1, 0,15, 0.00,15.00,Tuesday
7,-1.1
8,1211.2722036175777
9,1.0
10,178.15692317953907
11,1.0
12,178.15692317953907
13,1211.2722036175777
14,6.721697352430053
15,8.060438098784715
16,6.273084480161401
17,1.3034915068116107
18,6.572043577856485
2,1, 1, 1, 0,15,15.00,30.00,Tuesday
7,-1.1
8,1137.9569692377798
9,1.0
10,166.40516310952945
11,1.0
12,166.40516310952945
13,1137.9569692377798
14,6.67500926605813
15,7.698325396506196
16,6.131439720581284
17,1.241788179239336
18,6.563842226947928
2,1, 1, 1, 0,15,30.00,45.00,Tuesday
7,-1.1
8,959.5048700077512
9,1.0
10,140.8967369711617
11,1.0
12,140.8967369711617
13,959.5048700077512
14,6.562587215646411
15,6.491942855083148
16,5.740666190771208
17,0.9952701133345272
18,6.547849545435151
2,1, 1, 1, 0,15,45.00,60.00,Tuesday
7,-1.1
8,789.5943100591383
9,1.0
10,116.57355796743004
11,1.0
12,116.57355796743004
13,789.5943100591383
14,6.443497606100392
15,5.279650052548676
16,5.355796273771489
17,0.7425947488955558
18,6.515605936612491
2,1, 1, 1, 0,16, 0.00,15.00,Tuesday
7,-1.1
8,626.6670946064958
9,1.0
10,93.14939272689483
11,1.0
12,93.14939272689483
13,626.6670946064958
14,6.339436730360243
15,4.229637089480514
16,5.020701732667021
17,0.5706288603979033
18,6.465260691937144
2,1, 1, 1, 0,16,15.00,30.00,Tuesday
7,-1.1
8,389.0360678411529
9,1.0
10,57.94047897402063
11,1.0
12,57.94047897402063
13,389.0360678411529
14,6.149307830014625
15,2.103944187711165
16,4.493533596350744
17,0.23375990878355425
18,6.389378364193213
2,1, 1, 1, 0,16,30.00,45.00,Tuesday
7,-1.1
8,301.6300334628514
9,1.0
10,45.38251793443488
11,1.0
12,45.38251793443488
13,301.6300334628514
14,6.076962504964324
15,1.4922433923766492
16,4.286687098785592
17,0.16840924601422103
18,6.298654430273424
2,1, 1, 1, 0,16,45.00,60.00,Tuesday
7,-1.1
8,210.55774644166127
9,1.0
10,32.02625108222755
11,1.0
12,32.02625108222755
13,210.55774644166127
14,5.964591131077883
15,0.6266901364629283
16,4.084656938311696
17,0.09594839238280884
18,6.207216378998587
2,1, 1, 1, 0,17, 0.00,15.00,Tuesday
7,-1.1
8,115.49062901598868
9,1.0
10,17.762198626050539
11,1.0
12,17.762198626050539
13,115.49062901598868
14,5.8263655839757269
15,-0.627360958172888
16,3.8188960124068105
17,-0.0830937177498754
18,6.115796838090913
2,1, 1, 1, 0,17,15.00,30.00,Tuesday
7,-1.1
8,0.0
9,0.0
10,0.0
11,0.0
12,0.0
13,0.0
14,5.637929779844888
15,-2.4659578671760795
16,3.461977196154237
17,-0.3857059836817598
18,6.013111403390971
2,1, 1, 1, 0,17,30.00,45.00,Tuesday
7,-1.1
8,0.0
9,0.0
10,0.0
11,0.0
12,0.0
13,0.0
14,5.583933809933928
15,-2.6028245156783478
16,3.3988858511230548
17,-0.37299944015904887
18,5.913334045130274
2,1, 1, 1, 0,17,45.00,60.00,Tuesday
7,-1.1
8,0.0
9,0.0
10,0.0
11,0.0
12,0.0
13,0.0
14,5.51426537668664
15,-2.7960599053837948
16,3.3695079572750048
17,-0.3417329938580451
18,5.829676471387016
2,1, 1, 1, 0,18, 0.00,15.00,Tuesday
7,-1.25
8,0.0
9,0.0
10,0.0
11,0.0
12,0.0
13,0.0
14,5.455833511542527
15,-2.943615277758959
16,3.2726026560058019
17,-0.471772175132287
18,5.762635283589641
2,1, 1, 1, 0,18,15.00,30.00,Tuesday
7,-1.4
8,0.0
9,0.0
10,0.0
11,0.0
12,0.0
13,0.0
14,5.402490967338726
15,-3.0960656102471164
16,3.192045649360921
17,-0.5902197429441003
18,5.7070666730016958
2,1, 1, 1, 0,18,30.00,45.00,Tuesday
7,-1.5499999999999999
8,0.0
9,0.0
10,0.0
11,0.0
12,0.0
13,0.0
14,5.353135951423147
15,-3.2480206697553268
16,3.1136653460846448
17,-0.7121801798452907
18,5.657810274221072
2,1, 1, 1, 0,18,45.00,60.00,Tuesday
7,-1.7
8,0.0
9,0.0
10,0.0
11,0.0
12,0.0
13,0.0
14,5.305703409301295
15,-3.400150272982107
16,3.0380758494590625
17,-0.8332714789438569
18,5.61161777915452
2,1, 1, 1, 0,19, 0.00,15.00,Tuesday
7,-1.825
8,0.0
9,0.0
10,0.0
11,0.0
12,0.0
13,0.0
14,5.283534985433533
15,-3.2495472125350428
16,2.940266422243326
17,-1.0028746446369042
18,5.570148693930272
2,1, 1, 1, 0,19,15.00,30.00,Tuesday
7,-1.9500000000000002
8,0.0
9,0.0
10,0.0
11,0.0
12,0.0
13,0.0
14,5.260247130322675
15,-3.1807095457996077
16,2.8588186546136287
17,-1.1593810085701649
18,5.535134936095503
2,1, 1, 1, 0,19,30.00,45.00,Tuesday
7,-2.075
8,0.0
9,0.0
10,0.0
11,0.0
12,0.0
13,0.0
14,5.232238435328567
15,-3.25399339453873
16,2.8003146284070228
17,-1.2732438497785097
18,5.505381994270491
2,1, 1, 1, 0,19,45.00,60.00,Tuesday
7,-2.2
8,0.0
9,0.0
10,0.0
11,0.0
12,0.0
13,0.0
14,5.206944034859875
15,-3.229933504659656
16,2.7226299496169874
17,-1.4237304260612974
18,5.477836761184714
2,1, 1, 1, 0,20, 0.00,15.00,Tuesday
7,-1.9250000000000003
8,0.0
9,0.0
10,0.0
11,0.0
12,0.0
13,0.0
14,5.199270006058501
15,-2.9283352084287399
16,2.7957535418465229
17,-1.2511339171769578
18,5.453666454202425
2,1, 1, 1, 0,20,15.00,30.00,Tuesday
7,-1.6500000000000002
8,0.0
9,0.0
10,0.0
11,0.0
12,0.0
13,0.0
14,5.191268737853868
15,-2.6297872326251
16,2.8555325474414987
17,-1.0490474742972538
18,5.433415686459266
2,1, 1, 1, 0,20,30.00,45.00,Tuesday
7,-1.375
8,0.0
9,0.0
10,0.0
11,0.0
12,0.0
13,0.0
14,5.18530564163641
15,-2.3325034884125186
16,2.9212599835476
17,-0.8514897095203082
18,5.416498005582159
2,1, 1, 1, 0,20,45.00,60.00,Tuesday
7,-1.1
8,0.0
9,0.0
10,0.0
11,0.0
12,0.0
13,0.0
14,5.181113380901844
15,-2.036500524310994
16,2.9897966782092455
17,-0.651358967679414
18,5.402038081329094
2,1, 1, 1, 0,21, 0.00,15.00,Tuesday
7,-1.25
8,0.0
9,0.0
10,0.0
11,0.0
12,0.0
13,0.0
14,5.133858908892609
15,-2.319610167758538
16,2.9505025851893835
17,-0.7078601725121416
18,5.382974024368027
2,1, 1, 1, 0,21,15.00,30.00,Tuesday
7,-1.4
8,0.0
9,0.0
10,0.0
11,0.0
12,0.0
13,0.0
14,5.0880462532982479
15,-2.537199691216956
16,2.8948804951684226
17,-0.7916782839171219
18,5.354419396520695
2,1, 1, 1, 0,21,30.00,45.00,Tuesday
7,-1.5499999999999999
8,0.0
9,0.0
10,0.0
11,0.0
12,0.0
13,0.0
14,5.028766852383679
15,-2.8841464633207094
16,2.8540652877337608
17,-0.840200614095977
18,5.315628623649585
2,1, 1, 1, 0,21,45.00,60.00,Tuesday
7,-1.7
8,0.0
9,0.0
10,0.0
11,0.0
12,0.0
13,0.0
14,4.964341831706457
15,-3.3390541823984014
16,2.8178592794891985
17,-0.8619557126654627
18,5.268993054655401
2,1, 1, 1, 0,22, 0.00,15.00,Tuesday
7,-1.5499999999999999
8,0.0
9,0.0
10,0.0
11,0.0
12,0.0
13,0.0
14,4.969632153821029
15,-2.8480112176337779
16,2.7887092745089037
17,-0.8673149041997021
18,5.227786128572154
2,1, 1, 1, 0,22,15.00,30.00,Tuesday
7,-1.4
8,0.0
9,0.0
10,0.0
11,0.0
12,0.0
13,0.0
14,4.96503954558347
15,-2.5155875682761499
16,2.7932197885852476
17,-0.822001489048148
18,5.199184259051559
2,1, 1, 1, 0,22,30.00,45.00,Tuesday
7,-1.25
8,0.0
9,0.0
10,0.0
11,0.0
12,0.0
13,0.0
14,4.959028499703829
15,-2.2944835465563737
16,2.8167177103580345
17,-0.7432691441522366
18,5.181224842600436
2,1, 1, 1, 0,22,45.00,60.00,Tuesday
7,-1.1
8,0.0
9,0.0
10,0.0
11,0.0
12,0.0
13,0.0
14,4.956836533867823
15,-2.0100870611396695
16,2.834016068008623
17,-0.6779460035295415
18,5.168782453550372
2,1, 1, 1, 0,23, 0.00,15.00,Tuesday
7,-1.25
8,0.0
9,0.0
10,0.0
11,0.0
12,0.0
13,0.0
14,4.908439609476851
15,-2.3135918231839236
16,2.7149449487733365
17,-0.9324228699491641
18,5.151047660912618
2,1, 1, 1, 0,23,15.00,30.00,Tuesday
7,-1.4
8,0.0
9,0.0
10,0.0
11,0.0
12,0.0
13,0.0
14,4.862948827458231
15,-2.618208453199284
16,2.5870368200481836
17,-1.2029009844393386
18,5.122690573901779
2,1, 1, 1, 0,23,30.00,45.00,Tuesday
7,-1.5499999999999999
8,0.0
9,0.0
10,0.0
11,0.0
12,0.0
13,0.0
14,4.812718065007929
15,-2.9234990639385916
16,2.457570688936073
17,-1.474896543359364
18,5.084848264206032
2,1, 1, 1, 0,23,45.00,60.00,Tuesday
7,-1.7
8,0.0
9,0.0
10,0.0
11,0.0
12,0.0
13,0.0
14,4.758473429466861
15,-3.229132696976059
16,2.324262522264007
17,-1.7489219544983144
18,5.040596716996641
2,1, 1, 1, 0,24, 0.00,15.00,Tuesday
7,-1.7
8,0.0
9,0.0
10,0.0
11,0.0
12,0.0
13,0.0
14,4.7209400540367298
15,-3.2831443103601609
16,2.2730526742755616
17,-1.8151134986305806
18,4.99590570114413
2,1, 1, 1, 0,24,15.00,30.00,Tuesday
7,-1.7
8,0.0
9,0.0
10,0.0
11,0.0
12,0.0
13,0.0
14,4.681249129821255
15,-3.337809298384102
16,2.2255882262679167
17,-1.8757680373686868
18,4.953943490656023
2,1, 1, 1, 0,24,30.00,45.00,Tuesday
7,-1.7
8,0.0
9,0.0
10,0.0
11,0.0
12,0.0
13,0.0
14,4.642665633528932
15,-3.3923610681121145
16,2.177907942611455
17,-1.936063553197414
18,4.914701752666043
2,1, 1, 1, 0,24,45.00,60.00,Tuesday
7,-1.7
8,0.0
9,0.0
10,0.0
11,0.0
12,0.0
13,0.0
14,4.604935771313518
15,-3.446914329245448
16,2.1311045343376806
17,-1.9958812141593399
18,4.877096162642977
End of Data
 Number of Records Written=        1152
