Program Version,EnergyPlus, Version 9.5.0-de239b2e5f, YMD=2023.02.16 21:08
1,5,Environment Title[],Latitude[deg],Longitude[deg],Time Zone[],Elevation[m]
2,8,Day of Simulation[],Month[],Day of Month[],DST Indicator[1=yes 0=no],Hour[],StartMinute[],EndMinute[],DayType
3,5,Cumulative Day of Simulation[],Month[],Day of Month[],DST Indicator[1=yes 0=no],DayType  ! When Daily Report Variables Requested
4,2,Cumulative Days of Simulation[],Month[]  ! When Monthly Report Variables Requested
5,1,Cumulative Days of Simulation[] ! When Run Period Report Variables Requested
6,1,Calendar Year of Simulation[] ! When Annual Report Variables Requested
7,1,Environment,Site Outdoor Air Drybulb Temperature [C] !TimeStep
8,1,ZONE ONE,Zone Windows Total Transmitted Solar Radiation Rate [W] !TimeStep
9,1,ZN001:WALL001,Surface Outside Face Sunlit Fraction [] !TimeStep
10,1,ZN001:WALL001,Surface Outside Face Incident Solar Radiation Rate per Area [W/m2] !TimeStep
11,1,ZN001:WALL001:WIN001,Surface Outside Face Sunlit Fraction [] !TimeStep
12,1,ZN001:WALL001:WIN001,Surface Outside Face Incident Solar Radiation Rate per Area [W/m2] !TimeStep
13,1,ZN001:WALL001:WIN001,Surface Window Transmitted Solar Radiation Rate [W] !TimeStep
14,1,ZN001:WALL001,Surface Inside Face Temperature [C] !TimeStep
15,1,ZN001:WALL001,Surface Outside Face Temperature [C] !TimeStep
16,1,ZN001:WALL001:WIN001,Surface Inside Face Temperature [C] !TimeStep
17,1,ZN001:WALL001:WIN001,Surface Outside Face Temperature [C] !TimeStep
18,1,ZONE ONE,Zone Mean Air Temperature [C] !TimeStep
End of Data Dictionary
1,RUN PERIOD 1,  41.98, -87.92,  -6.00, 201.00
2,1, 1, 1, 0, 1, 0.00,15.00,Tuesday
7,-4.324999999999999
8,0.0
9,0.0
10,0.0
11,0.0
12,0.0
13,0.0
14,3.9815133218836284
15,-5.931399974879375
16,2.537413701047228
17,-5.117660648287881
18,4.400153330295514
2,1, 1, 1, 0, 1,15.00,30.00,Tuesday
7,-6.949999999999999
8,0.0
9,0.0
10,0.0
11,0.0
12,0.0
13,0.0
14,3.8062654949081518
15,-8.39905143844474
16,2.0431400478338448
17,-7.294821444524246
18,4.3132872110543609
2,1, 1, 1, 0, 1,30.00,45.00,Tuesday
7,-9.575
8,0.0
9,0.0
10,0.0
11,0.0
12,0.0
13,0.0
14,3.6122705915906336
15,-10.87474712939198
16,1.5447327194837044
17,-9.478932799194013
18,4.195784261633308
2,1, 1, 1, 0, 1,45.00,60.00,Tuesday
7,-12.2
8,0.0
9,0.0
10,0.0
11,0.0
12,0.0
13,0.0
14,3.4033170308465467
15,-13.357025428397947
16,1.0320124035666823
17,-11.67093691092498
18,4.056557455011484
2,1, 1, 1, 0, 2, 0.00,15.00,Tuesday
7,-12.075
8,0.0
9,0.0
10,0.0
11,0.0
12,0.0
13,0.0
14,3.344755052894687
15,-13.15821130692995
16,0.9502314217190815
17,-11.513582122004437
18,3.9302161636702275
2,1, 1, 1, 0, 2,15.00,30.00,Tuesday
7,-11.95
8,0.0
9,0.0
10,0.0
11,0.0
12,0.0
13,0.0
14,3.2719206366223196
15,-12.980970810358
16,0.9138845790365053
17,-11.35507773818074
18,3.8335664414265975
2,1, 1, 1, 0, 2,30.00,45.00,Tuesday
7,-11.825
8,0.0
9,0.0
10,0.0
11,0.0
12,0.0
13,0.0
14,3.2151747802129169
15,-12.802589255504979
16,0.8819081596831779
17,-11.19642215483941
18,3.7622788965519295
2,1, 1, 1, 0, 2,45.00,60.00,Tuesday
7,-11.7
8,0.0
9,0.0
10,0.0
11,0.0
12,0.0
13,0.0
14,3.169144441061954
15,-12.624276985110491
16,0.8623123697300343
17,-11.035920955000052
18,3.7062687176353314
2,1, 1, 1, 0, 3, 0.00,15.00,Tuesday
7,-11.549999999999999
8,0.0
9,0.0
10,0.0
11,0.0
12,0.0
13,0.0
14,3.124530446218481
15,-12.498806614823513
16,0.8491480226382464
17,-10.903183346979973
18,3.6570019089157768
2,1, 1, 1, 0, 3,15.00,30.00,Tuesday
7,-11.399999999999999
8,0.0
9,0.0
10,0.0
11,0.0
12,0.0
13,0.0
14,3.0831076689380469
15,-12.374728316023895
16,0.8356005006348255
17,-10.762370367156678
18,3.6100817165270908
2,1, 1, 1, 0, 3,30.00,45.00,Tuesday
7,-11.25
8,0.0
9,0.0
10,0.0
11,0.0
12,0.0
13,0.0
14,3.0425590273053397
15,-12.252205759927597
16,0.8236089711181194
17,-10.620966715906207
18,3.564140562227417
2,1, 1, 1, 0, 3,45.00,60.00,Tuesday
7,-11.1
8,0.0
9,0.0
10,0.0
11,0.0
12,0.0
13,0.0
14,3.0024718842586459
15,-12.13129859364058
16,0.812220942818044
17,-10.479779746077498
18,3.5189651715751286
2,1, 1, 1, 0, 4, 0.00,15.00,Tuesday
7,-11.1
8,0.0
9,0.0
10,0.0
11,0.0
12,0.0
13,0.0
14,2.958893759518414
15,-12.101918190273727
16,0.7672326955114386
17,-10.490132055262507
18,3.473911002282118
2,1, 1, 1, 0, 4,15.00,30.00,Tuesday
7,-11.1
8,0.0
9,0.0
10,0.0
11,0.0
12,0.0
13,0.0
14,2.9157399865197957
15,-12.073668481580514
16,0.7259450118518771
17,-10.507324090824227
18,3.428701612465401
2,1, 1, 1, 0, 4,30.00,45.00,Tuesday
7,-11.1
8,0.0
9,0.0
10,0.0
11,0.0
12,0.0
13,0.0
14,2.872509562422011
15,-12.04699541991691
16,0.6851518240579253
17,-10.524417079515786
18,3.3833786956240514
2,1, 1, 1, 0, 4,45.00,60.00,Tuesday
7,-11.1
8,0.0
9,0.0
10,0.0
11,0.0
12,0.0
13,0.0
14,2.829266268896633
15,-12.021768873935863
16,0.644497702547369
17,-10.540931943717169
18,3.338058595720538
2,1, 1, 1, 0, 5, 0.00,15.00,Tuesday
7,-10.975
8,0.0
9,0.0
10,0.0
11,0.0
12,0.0
13,0.0
14,2.7915448211666029
15,-11.899644334140924
16,0.6293486345320503
17,-10.446480206433194
18,3.293704668400556
2,1, 1, 1, 0, 5,15.00,30.00,Tuesday
7,-10.85
8,0.0
9,0.0
10,0.0
11,0.0
12,0.0
13,0.0
14,2.753985119329044
15,-11.777605495456787
16,0.6133639992093549
17,-10.34431341243203
18,3.2507435015730676
2,1, 1, 1, 0, 5,30.00,45.00,Tuesday
7,-10.725
8,0.0
9,0.0
10,0.0
11,0.0
12,0.0
13,0.0
14,2.7173302032987465
15,-11.655547150380548
16,0.5977437815578242
17,-10.241472677784032
18,3.2090053057196457
2,1, 1, 1, 0, 5,45.00,60.00,Tuesday
7,-10.6
8,0.0
9,0.0
10,0.0
11,0.0
12,0.0
13,0.0
14,2.6814419345455908
15,-11.533499062497138
16,0.5828760760646219
17,-10.138477944629642
18,3.1681766805355706
2,1, 1, 1, 0, 6, 0.00,15.00,Tuesday
7,-10.6
8,0.0
9,0.0
10,0.0
11,0.0
12,0.0
13,0.0
14,2.6384987813504616
15,-11.53435789271636
16,0.5467507217589969
17,-10.1396864164833
18,3.1268740079563379
2,1, 1, 1, 0, 6,15.00,30.00,Tuesday
7,-10.6
8,0.0
9,0.0
10,0.0
11,0.0
12,0.0
13,0.0
14,2.596170645183742
15,-11.535146250714382
16,0.5082342547884764
17,-10.141748334855607
18,3.084272951281638
2,1, 1, 1, 0, 6,30.00,45.00,Tuesday
7,-10.6
8,0.0
9,0.0
10,0.0
11,0.0
12,0.0
13,0.0
14,2.5533175642014598
15,-11.535979123101873
16,0.47091234286176589
17,-10.147114131447666
18,3.0406133590345725
2,1, 1, 1, 0, 6,45.00,60.00,Tuesday
7,-10.6
8,0.0
9,0.0
10,0.0
11,0.0
12,0.0
13,0.0
14,2.51012546318892
15,-11.536810841095706
16,0.43328485053285706
17,-10.152836749083577
18,2.9964010903650988
2,1, 1, 1, 0, 7, 0.00,15.00,Tuesday
7,-10.6
8,0.0
9,0.0
10,0.0
11,0.0
12,0.0
13,0.0
14,2.4690337504037846
15,-11.512567511746094
16,0.39369386284863597
17,-10.166097763903167
18,2.9523687873943027
2,1, 1, 1, 0, 7,15.00,30.00,Tuesday
7,-10.6
8,0.0
9,0.0
10,0.0
11,0.0
12,0.0
13,0.0
14,2.4278064079375376
15,-11.489579046213054
16,0.355453396102007
17,-10.179217572913445
18,2.9088820014927356
2,1, 1, 1, 0, 7,30.00,45.00,Tuesday
7,-10.6
8,0.0
9,0.0
10,0.0
11,0.0
12,0.0
13,0.0
14,2.3868752231636467
15,-11.46775752722006
16,0.31746121659875828
17,-10.191911320956024
18,2.8659067988228377
2,1, 1, 1, 0, 7,45.00,60.00,Tuesday
7,-10.6
8,0.0
9,0.0
10,0.0
11,0.0
12,0.0
13,0.0
14,2.3462426775219047
15,-11.447034294796437
16,0.27983896544981237
17,-10.20412212910918
18,2.8233068932780656
2,1, 1, 1, 0, 8, 0.00,15.00,Tuesday
7,-10.45
8,0.0
9,0.0
10,0.0
11,0.0
12,0.0
13,0.0
14,2.304759471436174
15,-11.398433045696388
16,0.2554315354037726
17,-10.160682242081862
18,2.780572808985555
2,1, 1, 1, 0, 8,15.00,30.00,Tuesday
7,-10.3
8,115.03919117926972
9,1.0
10,22.819555959623899
11,1.0
12,22.819555959623899
13,115.03919117926972
14,2.3749114109457207
15,-9.725232775154103
16,0.5734627857647752
17,-9.83604039570514
18,2.7536583035680834
2,1, 1, 1, 0, 8,30.00,45.00,Tuesday
7,-10.15
8,564.843581773016
9,1.0
10,109.75755355442667
11,1.0
12,109.75755355442667
13,564.843581773016
14,2.7481833660879224
15,-3.360048995267375
16,1.9468344296855094
17,-8.692044364617061
18,2.786606793553951
2,1, 1, 1, 0, 8,45.00,60.00,Tuesday
7,-10.0
8,1027.107415698465
9,1.0
10,195.8764694434918
11,1.0
12,195.8764694434918
13,1027.107415698465
14,3.218870256383987
15,3.1265730794883659
16,3.5158713298421846
17,-7.531968183082142
18,2.88511862693596
2,1, 1, 1, 0, 9, 0.00,15.00,Tuesday
7,-9.725
8,1487.7790350735168
9,1.0
10,278.97248314719988
11,1.0
12,278.97248314719988
13,1487.7790350735168
14,3.601815866389425
15,8.30578685048896
16,4.946179708670684
17,-6.500545907903984
18,3.034185486879692
2,1, 1, 1, 0, 9,15.00,30.00,Tuesday
7,-9.45
8,1973.3797118442713
9,1.0
10,364.91995730569456
11,1.0
12,364.91995730569456
13,1973.3797118442713
14,4.0037196740397908
15,13.38404739617761
16,6.379484827204237
17,-5.467604063874944
18,3.2257288210767158
2,1, 1, 1, 0, 9,30.00,45.00,Tuesday
7,-9.175
8,2294.651274485231
9,1.0
10,420.35879993239237
11,1.0
12,420.35879993239237
13,2294.651274485231
14,4.281681685678603
15,16.142415833021496
16,7.354046584534558
17,-4.8230187909795749
18,3.4403218872209044
2,1, 1, 1, 0, 9,45.00,60.00,Tuesday
7,-8.9
8,2628.157408555287
9,1.0
10,478.00138373643099
11,1.0
12,478.00138373643099
13,2628.157408555287
14,4.609423570702782
15,19.137369897769788
16,8.324520180827506
17,-4.154850900996337
18,3.6677573569860448
2,1, 1, 1, 0,10, 0.00,15.00,Tuesday
7,-8.350000000000002
8,2968.709586547734
9,1.0
10,536.9185644770597
11,1.0
12,536.9185644770597
13,2968.709586547734
14,4.880386818145013
15,20.255428521491319
16,9.327064908378361
17,-3.3992558487562976
18,3.9087709608744105
2,1, 1, 1, 0,10,15.00,30.00,Tuesday
7,-7.800000000000001
8,3321.0268194611828
9,1.0
10,598.0969199229219
11,1.0
12,598.0969199229219
13,3321.0268194611828
14,5.177008910095074
15,21.508804256030655
16,10.347610711374955
17,-2.662047149847467
18,4.171193354502124
2,1, 1, 1, 0,10,30.00,45.00,Tuesday
7,-7.25
8,3552.151013375401
9,1.0
10,637.6133352894237
11,1.0
12,637.6133352894237
13,3552.151013375401
14,5.403664408325279
15,21.56890984136891
16,11.085185021007249
17,-2.1506909120770389
18,4.441155903354212
2,1, 1, 1, 0,10,45.00,60.00,Tuesday
7,-6.7
8,3779.8708706745844
9,1.0
10,676.6412284283772
11,1.0
12,676.6412284283772
13,3779.8708706745844
14,5.650948220408553
15,21.72939482430578
16,11.79305409546032
17,-1.632493799222857
18,4.707317461829979
2,1, 1, 1, 0,11, 0.00,15.00,Tuesday
7,-6.275
8,4003.447923168032
9,1.0
10,715.0112779846514
11,1.0
12,715.0112779846514
13,4003.447923168032
14,5.974394772615785
15,23.82704649763778
16,12.520602625369293
17,-0.9122793473068782
18,4.971536377748138
2,1, 1, 1, 0,11,15.00,30.00,Tuesday
7,-5.85
8,4221.762249309513
9,1.0
10,752.5077794605232
11,1.0
12,752.5077794605232
13,4221.762249309513
14,6.285588730685772
15,25.76205737273448
16,13.241060889558526
17,-0.21434059533009987
18,5.238050273347994
2,1, 1, 1, 0,11,30.00,45.00,Tuesday
7,-5.425
8,4156.879578089225
9,1.0
10,742.5988714321785
11,1.0
12,742.5988714321785
13,4156.879578089225
14,6.466215256318841
15,25.613882820748427
16,13.360340399059794
17,0.0808266045727919
18,5.4904672083404419
2,1, 1, 1, 0,11,45.00,60.00,Tuesday
7,-5.0
8,4064.169807818047
9,1.0
10,727.8169025450712
11,1.0
12,727.8169025450712
13,4064.169807818047
14,6.642297934418163
15,25.384687716988187
16,13.39062610264665
17,0.34561902111317979
18,5.716880180735038
2,1, 1, 1, 0,12, 0.00,15.00,Tuesday
7,-4.575
8,3904.7370931113848
9,1.0
10,700.3759009170325
11,1.0
12,700.3759009170325
13,3904.7370931113848
14,6.763491364683955
15,24.642082796770806
16,13.263869609422273
17,0.5554023348463488
18,5.910961823577155
2,1, 1, 1, 0,12,15.00,30.00,Tuesday
7,-4.15
8,3786.4971101905705
9,1.0
10,681.6705029034473
11,1.0
12,681.6705029034473
13,3786.4971101905705
14,6.905961240827726
15,24.31165482435391
16,13.21800198723173
17,0.8304643480781806
18,6.080062542896522
2,1, 1, 1, 0,12,30.00,45.00,Tuesday
7,-3.7249999999999998
8,3324.2291040318089
9,1.0
10,602.01865277251
11,1.0
12,602.01865277251
13,3324.2291040318089
14,6.8224823655329269
15,21.28330662858504
16,12.40326834996273
17,0.62555153522419
18,6.204251995019893
2,1, 1, 1, 0,12,45.00,60.00,Tuesday
7,-3.3
8,2714.939666512416
9,1.0
10,493.55004396206007
11,1.0
12,493.55004396206007
13,2714.939666512416
14,6.635699559457369
15,17.1048582247303
16,11.132402900149487
17,0.17737782916526613
18,6.262080259045311
2,1, 1, 1, 0,13, 0.00,15.00,Tuesday
7,-3.0249999999999996
8,2241.7153986594264
9,1.0
10,412.335026418112
11,1.0
12,412.335026418112
13,2241.7153986594264
14,6.502337527999333
15,14.260522228369922
16,10.112131932455782
17,-0.13329553390985894
18,6.267258032182471
2,1, 1, 1, 0,13,15.00,30.00,Tuesday
7,-2.75
8,1641.850123185226
9,1.0
10,305.94037763660148
11,1.0
12,305.94037763660148
13,1641.850123185226
14,6.2171115093665449
15,10.087087034661325
16,8.722341160133169
17,-0.663562426641704
18,6.228679476499521
2,1, 1, 1, 0,13,30.00,45.00,Tuesday
7,-2.475
8,1498.9510431694724
9,1.0
10,281.0763483922329
11,1.0
12,281.0763483922329
13,1498.9510431694724
14,6.1963473298589319
15,9.573181200736244
16,8.373465435238132
17,-0.5399684492543884
18,6.176660783103357
2,1, 1, 1, 0,13,45.00,60.00,Tuesday
7,-2.2
8,1359.0287484929959
9,1.0
10,256.7721209415886
11,1.0
12,256.7721209415886
13,1359.0287484929959
14,6.164768613736306
15,8.967117633483678
16,8.097892405942844
17,-0.3925561849277983
18,6.132278090051101
2,1, 1, 1, 0,14, 0.00,15.00,Tuesday
7,-1.9250000000000003
8,1110.188267973163
9,1.0
10,210.73276284570657
11,1.0
12,210.73276284570657
13,1110.188267973163
14,6.039402834203381
15,7.418663638346775
16,7.499220139476677
17,-0.47083811678032819
18,6.0922029957208869
2,1, 1, 1, 0,14,15.00,30.00,Tuesday
7,-1.6500000000000002
8,986.2055451828589
9,1.0
10,189.38488290342594
11,1.0
12,189.38488290342594
13,986.2055451828589
14,6.01553312864119
15,7.015380118571803
16,7.2077361713919
17,-0.3492911883247416
18,6.056100375757685
2,1, 1, 1, 0,14,30.00,45.00,Tuesday
7,-1.375
8,940.5609907953474
9,1.0
10,179.3940297802914
11,1.0
12,179.3940297802914
13,940.5609907953474
14,6.011814049214268
15,7.136738873962906
16,7.128995401093846
17,-0.11612789627281473
18,6.026432045959791
2,1, 1, 1, 0,14,45.00,60.00,Tuesday
7,-1.1
8,894.3949724036753
9,1.0
10,169.43349014176136
11,1.0
12,169.43349014176136
13,894.3949724036753
14,6.005879899414542
15,7.235143430016274
16,7.043450178061164
17,0.11559615508497245
18,6.002988353308261
2,1, 1, 1, 0,15, 0.00,15.00,Tuesday
7,-1.1
8,941.4068197394458
9,1.0
10,178.15692317953907
11,1.0
12,178.15692317953907
13,941.4068197394458
14,6.063470641771823
15,8.05448749326776
16,7.174636184289966
17,0.23770558958813127
18,5.98888507035652
2,1, 1, 1, 0,15,15.00,30.00,Tuesday
7,-1.1
8,884.4258525960432
9,1.0
10,166.40516310952945
11,1.0
12,166.40516310952945
13,884.4258525960432
14,6.018425639595924
15,7.688319159701871
16,7.02215500481384
17,0.1713376079536033
18,5.9786472620673509
2,1, 1, 1, 0,15,30.00,45.00,Tuesday
7,-1.1
8,745.7319878230006
9,1.0
10,140.8967369711617
11,1.0
12,140.8967369711617
13,745.7319878230006
14,5.916737313595112
15,6.480697524426608
16,6.616870808971839
17,-0.0623929379320316
18,5.959783613817287
2,1, 1, 1, 0,15,45.00,60.00,Tuesday
7,-1.1
8,613.6766501346383
9,1.0
10,116.57355796743004
11,1.0
12,116.57355796743004
13,613.6766501346383
14,5.809986666942604
15,5.27205721649441
16,6.201381890785854
17,-0.318415170564208
18,5.92536143611209
2,1, 1, 1, 0,16, 0.00,15.00,Tuesday
7,-1.1
8,487.0488027440361
9,1.0
10,93.14939272689483
11,1.0
12,93.14939272689483
13,487.0488027440361
14,5.717506495588069
15,4.2198752363471849
16,5.783309863178317
17,-0.49398729901247409
18,5.87562216687825
2,1, 1, 1, 0,16,15.00,30.00,Tuesday
7,-1.1
8,302.3607792671943
9,1.0
10,57.94047897402063
11,1.0
12,57.94047897402063
13,302.3607792671943
14,5.541792018385468
15,2.0934167651349999
16,5.187185300952592
17,-0.8363402982479329
18,5.805279263192464
2,1, 1, 1, 0,16,30.00,45.00,Tuesday
7,-1.1
8,234.42837183280779
9,1.0
10,45.38251793443488
11,1.0
12,45.38251793443488
13,234.42837183280779
14,5.4742876428365359
15,1.4800530944634523
16,4.932016915134682
17,-0.9228294441713842
18,5.7230173045601548
2,1, 1, 1, 0,16,45.00,60.00,Tuesday
7,-1.1
8,163.64653449269407
9,1.0
10,32.02625108222755
11,1.0
12,32.02625108222755
13,163.64653449269407
14,5.372399374143025
15,0.6136937425398548
16,4.690319003508364
17,-1.025448350391457
18,5.635797553410673
2,1, 1, 1, 0,17, 0.00,15.00,Tuesday
7,-1.1
8,89.75989496584296
9,1.0
10,17.762198626050539
11,1.0
12,17.762198626050539
13,89.75989496584296
14,5.2415305082376248
15,-0.6419900407617024
16,4.40091369791611
17,-1.2577933351001889
18,5.54624019716449
2,1, 1, 1, 0,17,15.00,30.00,Tuesday
7,-1.1
8,0.0
9,0.0
10,0.0
11,0.0
12,0.0
13,0.0
14,5.062872388955081
15,-2.4811063498523078
16,4.0465736813388279
17,-1.5490065490146208
18,5.446146678530694
2,1, 1, 1, 0,17,30.00,45.00,Tuesday
7,-1.1
8,0.0
9,0.0
10,0.0
11,0.0
12,0.0
13,0.0
14,5.010745352018339
15,-2.618938123524295
16,3.9477412823454758
17,-1.5970613518450705
18,5.349157816142678
2,1, 1, 1, 0,17,45.00,60.00,Tuesday
7,-1.1
8,0.0
9,0.0
10,0.0
11,0.0
12,0.0
13,0.0
14,4.944462056386084
15,-2.8132929518376597
16,3.888075034097369
17,-1.6515165152208056
18,5.267665059068207
2,1, 1, 1, 0,18, 0.00,15.00,Tuesday
7,-1.25
8,0.0
9,0.0
10,0.0
11,0.0
12,0.0
13,0.0
14,4.889777508887199
15,-2.9606710488111638
16,3.807420179122005
17,-1.79918751265825
18,5.202889200675175
2,1, 1, 1, 0,18,15.00,30.00,Tuesday
7,-1.4
8,0.0
9,0.0
10,0.0
11,0.0
12,0.0
13,0.0
14,4.840180222611123
15,-3.113030640423644
16,3.7408466221835967
17,-1.934420867528729
18,5.1502657608963349
2,1, 1, 1, 0,18,30.00,45.00,Tuesday
7,-1.5499999999999999
8,0.0
9,0.0
10,0.0
11,0.0
12,0.0
13,0.0
14,4.794899456258355
15,-3.2648629873683467
16,3.678500577334603
17,-2.069710095448386
18,5.10471853820958
2,1, 1, 1, 0,18,45.00,60.00,Tuesday
7,-1.7
8,0.0
9,0.0
10,0.0
11,0.0
12,0.0
13,0.0
14,4.751841782156954
15,-3.4168613821347728
16,3.6193014863641226
17,-2.2042919598576988
18,5.062833291175513
2,1, 1, 1, 0,19, 0.00,15.00,Tuesday
7,-1.825
8,0.0
9,0.0
10,0.0
11,0.0
12,0.0
13,0.0
14,4.73494683583557
15,-3.2642704410879146
16,3.580592754999998
17,-2.2474843734863159
18,5.026565899621172
2,1, 1, 1, 0,19,15.00,30.00,Tuesday
7,-1.9500000000000002
8,0.0
9,0.0
10,0.0
11,0.0
12,0.0
13,0.0
14,4.717314271710391
15,-3.1936207057140297
16,3.546529673701343
17,-2.314043429114008
18,4.997602223632452
2,1, 1, 1, 0,19,30.00,45.00,Tuesday
7,-2.075
8,0.0
9,0.0
10,0.0
11,0.0
12,0.0
13,0.0
14,4.694869982247556
15,-3.26633133042769
16,3.5104185135009517
17,-2.4112985996847557
18,4.974242118415615
2,1, 1, 1, 0,19,45.00,60.00,Tuesday
7,-2.2
8,0.0
9,0.0
10,0.0
11,0.0
12,0.0
13,0.0
14,4.675665018868422
15,-3.240733104311164
16,3.478894929042326
17,-2.4909266528371178
18,4.953435858180827
2,1, 1, 1, 0,20, 0.00,15.00,Tuesday
7,-1.9250000000000003
8,0.0
9,0.0
10,0.0
11,0.0
12,0.0
13,0.0
14,4.672691194665047
15,-2.9387002609252796
16,3.5127211302821026
17,-2.2538354721111775
18,4.935181265319979
2,1, 1, 1, 0,20,15.00,30.00,Tuesday
7,-1.6500000000000002
8,0.0
9,0.0
10,0.0
11,0.0
12,0.0
13,0.0
14,4.66947574706562
15,-2.639778571080554
16,3.5484991761733797
17,-2.009255007977629
18,4.91978233511949
2,1, 1, 1, 0,20,30.00,45.00,Tuesday
7,-1.375
8,0.0
9,0.0
10,0.0
11,0.0
12,0.0
13,0.0
14,4.66781924578498
15,-2.3421529055732765
16,3.585457501106305
17,-1.7634084297337723
18,4.906894019802631
2,1, 1, 1, 0,20,45.00,60.00,Tuesday
7,-1.1
8,0.0
9,0.0
10,0.0
11,0.0
12,0.0
13,0.0
14,4.6675574856506
15,-2.045830919059777
16,3.6240573214407165
17,-1.5163718172020709
18,4.895942828823666
2,1, 1, 1, 0,21, 0.00,15.00,Tuesday
7,-1.25
8,0.0
9,0.0
10,0.0
11,0.0
12,0.0
13,0.0
14,4.624527401307909
15,-2.330310933334242
16,3.5794944756981978
17,-1.6658491618561584
18,4.8804803049459199
2,1, 1, 1, 0,21,15.00,30.00,Tuesday
7,-1.4
8,0.0
9,0.0
10,0.0
11,0.0
12,0.0
13,0.0
14,4.582691836743896
15,-2.5486370897065258
16,3.5278957838824569
17,-1.8055851428151755
18,4.855917896797496
2,1, 1, 1, 0,21,30.00,45.00,Tuesday
7,-1.5499999999999999
8,0.0
9,0.0
10,0.0
11,0.0
12,0.0
13,0.0
14,4.527092181068
15,-2.8973924719420567
16,3.467582093736951
17,-1.9713334918982355
18,4.821089564428917
2,1, 1, 1, 0,21,45.00,60.00,Tuesday
7,-1.7
8,0.0
9,0.0
10,0.0
11,0.0
12,0.0
13,0.0
14,4.466015845792606
15,-3.354370043080996
16,3.3929274967939024
17,-2.165238518928504
18,4.777888071117081
2,1, 1, 1, 0,22, 0.00,15.00,Tuesday
7,-1.5499999999999999
8,0.0
9,0.0
10,0.0
11,0.0
12,0.0
13,0.0
14,4.475787066214946
15,-2.8608290798586419
16,3.3936125836000885
17,-1.9740606378182975
18,4.74017323415687
2,1, 1, 1, 0,22,15.00,30.00,Tuesday
7,-1.4
8,0.0
9,0.0
10,0.0
11,0.0
12,0.0
13,0.0
14,4.4759712908509059
15,-2.526595235214442
16,3.41806807999302
17,-1.8167563824474656
18,4.715635314221656
2,1, 1, 1, 0,22,30.00,45.00,Tuesday
7,-1.25
8,0.0
9,0.0
10,0.0
11,0.0
12,0.0
13,0.0
14,4.474368759352586
15,-2.3046629008872188
16,3.4372321855495899
17,-1.6763272007606816
18,4.7020580235274089
2,1, 1, 1, 0,22,45.00,60.00,Tuesday
7,-1.1
8,0.0
9,0.0
10,0.0
11,0.0
12,0.0
13,0.0
14,4.476689765721633
15,-2.018849737660504
16,3.460815418089794
17,-1.5073004779091548
18,4.694165943509836
2,1, 1, 1, 0,23, 0.00,15.00,Tuesday
7,-1.25
8,0.0
9,0.0
10,0.0
11,0.0
12,0.0
13,0.0
14,4.432921236822929
15,-2.322288375853916
16,3.3930371013162814
17,-1.802006217605367
18,4.681716923575086
2,1, 1, 1, 0,23,15.00,30.00,Tuesday
7,-1.4
8,0.0
9,0.0
10,0.0
11,0.0
12,0.0
13,0.0
14,4.392650064837681
15,-2.6267959375547869
16,3.3093725322487446
17,-2.104239129273651
18,4.659467984003432
2,1, 1, 1, 0,23,30.00,45.00,Tuesday
7,-1.5499999999999999
8,0.0
9,0.0
10,0.0
11,0.0
12,0.0
13,0.0
14,4.34799441680116
15,-2.9319853847923458
16,3.2246634263718194
17,-2.4062633847455574
18,4.6282973769501
2,1, 1, 1, 0,23,45.00,60.00,Tuesday
7,-1.7
8,0.0
9,0.0
10,0.0
11,0.0
12,0.0
13,0.0
14,4.299592802438804
15,-3.237514429068101
16,3.136263513778374
17,-2.7085807554158238
18,4.590995589182445
2,1, 1, 1, 0,24, 0.00,15.00,Tuesday
7,-1.7
8,0.0
9,0.0
10,0.0
11,0.0
12,0.0
13,0.0
14,4.268382508255175
15,-3.2914144005719656
16,3.0930200202412836
17,-2.768774197863763
18,4.552929208572496
2,1, 1, 1, 0,24,15.00,30.00,Tuesday
7,-1.7
8,0.0
9,0.0
10,0.0
11,0.0
12,0.0
13,0.0
14,4.234109972524474
15,-3.346020319867042
16,3.0547283111917524
17,-2.8293464330746476
18,4.517033660018793
2,1, 1, 1, 0,24,30.00,45.00,Tuesday
7,-1.7
8,0.0
9,0.0
10,0.0
11,0.0
12,0.0
13,0.0
14,4.2007355300444859
15,-3.4004842601337077
16,3.0158757011691934
17,-2.89012002534281
18,4.48338808197198
2,1, 1, 1, 0,24,45.00,60.00,Tuesday
7,-1.7
8,0.0
9,0.0
10,0.0
11,0.0
12,0.0
13,0.0
14,4.168051623689389
15,-3.454951181185935
16,2.977813994661915
17,-2.950697399884575
18,4.451101049556558
End of Data
 Number of Records Written=        1152
