Program Version,EnergyPlus, Version 9.5.0-de239b2e5f, YMD=2023.02.17 18:12
1,5,Environment Title[],Latitude[deg],Longitude[deg],Time Zone[],Elevation[m]
2,8,Day of Simulation[],Month[],Day of Month[],DST Indicator[1=yes 0=no],Hour[],StartMinute[],EndMinute[],DayType
3,5,Cumulative Day of Simulation[],Month[],Day of Month[],DST Indicator[1=yes 0=no],DayType  ! When Daily Report Variables Requested
4,2,Cumulative Days of Simulation[],Month[]  ! When Monthly Report Variables Requested
5,1,Cumulative Days of Simulation[] ! When Run Period Report Variables Requested
6,1,Calendar Year of Simulation[] ! When Annual Report Variables Requested
7,1,Environment,Site Outdoor Air Drybulb Temperature [C] !TimeStep
8,1,ZONE ONE,Zone Windows Total Transmitted Solar Radiation Rate [W] !TimeStep
9,1,ZN001:WALL001,Surface Outside Face Sunlit Fraction [] !TimeStep
10,1,ZN001:WALL001,Surface Outside Face Incident Solar Radiation Rate per Area [W/m2] !TimeStep
11,1,ZN001:WALL001:WIN001,Surface Outside Face Sunlit Fraction [] !TimeStep
12,1,ZN001:WALL001:WIN001,Surface Outside Face Incident Solar Radiation Rate per Area [W/m2] !TimeStep
13,1,ZN001:WALL001:WIN001,Surface Window Transmitted Solar Radiation Rate [W] !TimeStep
14,1,ZN001:WALL001,Surface Inside Face Temperature [C] !TimeStep
15,1,ZN001:WALL001,Surface Outside Face Temperature [C] !TimeStep
16,1,ZN001:WALL001:WIN001,Surface Inside Face Temperature [C] !TimeStep
17,1,ZN001:WALL001:WIN001,Surface Outside Face Temperature [C] !TimeStep
18,1,ZONE ONE,Zone Mean Air Temperature [C] !TimeStep
End of Data Dictionary
1,RUN PERIOD 1,  41.98, -87.92,  -6.00, 201.00
2,1, 1, 1, 0, 1, 0.00,15.00,Tuesday
7,-4.324999999999999
8,0.0
9,0.0
10,0.0
11,0.0
12,0.0
13,0.0
14,2.357689250070172
15,-5.961022174573594
16,0.5525087414616223
17,-4.90313461896568
18,2.725553079381761
2,1, 1, 1, 0, 1,15.00,30.00,Tuesday
7,-6.949999999999999
8,0.0
9,0.0
10,0.0
11,0.0
12,0.0
13,0.0
14,2.181661391479514
15,-8.428892547571671
16,-0.09059032103129994
17,-6.969900722232126
18,2.6377813981076208
2,1, 1, 1, 0, 1,30.00,45.00,Tuesday
7,-9.575
8,0.0
9,0.0
10,0.0
11,0.0
12,0.0
13,0.0
14,1.9843751654474744
15,-10.905120907449467
16,-0.7361390681753051
17,-9.043168752210989
18,2.516806417646594
2,1, 1, 1, 0, 1,45.00,60.00,Tuesday
7,-12.2
8,0.0
9,0.0
10,0.0
11,0.0
12,0.0
13,0.0
14,1.7713052584086584
15,-13.387863192157218
16,-1.395683555826679
17,-11.12465709219066
18,2.3721207675030087
2,1, 1, 1, 0, 2, 0.00,15.00,Tuesday
7,-12.075
8,0.0
9,0.0
10,0.0
11,0.0
12,0.0
13,0.0
14,1.7128865999182484
15,-13.189402341461522
16,-1.4540194550912702
17,-10.977083791714506
18,2.2414061365921826
2,1, 1, 1, 0, 2,15.00,30.00,Tuesday
7,-11.95
8,0.0
9,0.0
10,0.0
11,0.0
12,0.0
13,0.0
14,1.639977469016478
15,-13.012141453443233
16,-1.475799531573216
17,-10.832509066285298
18,2.142681006844273
2,1, 1, 1, 0, 2,30.00,45.00,Tuesday
7,-11.825
8,0.0
9,0.0
10,0.0
11,0.0
12,0.0
13,0.0
14,1.5842568282349759
15,-12.833679428975432
16,-1.4923375389437297
17,-10.687480879589203
18,2.0713625003458868
2,1, 1, 1, 0, 2,45.00,60.00,Tuesday
7,-11.7
8,0.0
9,0.0
10,0.0
11,0.0
12,0.0
13,0.0
14,1.5400913237583985
15,-12.655279854406805
16,-1.4923468610521127
17,-10.549526840289048
18,2.0167212241364225
2,1, 1, 1, 0, 3, 0.00,15.00,Tuesday
7,-11.549999999999999
8,0.0
9,0.0
10,0.0
11,0.0
12,0.0
13,0.0
14,1.4976342010569515
15,-12.530589731648013
16,-1.4909435356893255
17,-10.41031402869919
18,1.9695699932657814
2,1, 1, 1, 0, 3,15.00,30.00,Tuesday
7,-11.399999999999999
8,0.0
9,0.0
10,0.0
11,0.0
12,0.0
13,0.0
14,1.4586818166912206
15,-12.407328906522553
16,-1.4876458958447075
17,-10.27088525115937
18,1.9251511494554952
2,1, 1, 1, 0, 3,30.00,45.00,Tuesday
7,-11.25
8,0.0
9,0.0
10,0.0
11,0.0
12,0.0
13,0.0
14,1.4207554254876394
15,-12.285665754226488
16,-1.4824784208475422
17,-10.131373133462262
18,1.8819360654803972
2,1, 1, 1, 0, 3,45.00,60.00,Tuesday
7,-11.1
8,0.0
9,0.0
10,0.0
11,0.0
12,0.0
13,0.0
14,1.38338615099921
15,-12.165660094503768
16,-1.4766323262173274
17,-9.992121144311
18,1.8396400790310548
2,1, 1, 1, 0, 4, 0.00,15.00,Tuesday
7,-11.1
8,0.0
9,0.0
10,0.0
11,0.0
12,0.0
13,0.0
14,1.342381249718196
15,-12.135249378569985
16,-1.5221912215941416
17,-10.010931870704212
18,1.797353282132567
2,1, 1, 1, 0, 4,15.00,30.00,Tuesday
7,-11.1
8,0.0
9,0.0
10,0.0
11,0.0
12,0.0
13,0.0
14,1.3017784286003343
15,-12.106017580114802
16,-1.5619860695239823
17,-10.03682078518824
18,1.754720765656425
2,1, 1, 1, 0, 4,30.00,45.00,Tuesday
7,-11.1
8,0.0
9,0.0
10,0.0
11,0.0
12,0.0
13,0.0
14,1.2610148211787485
15,-12.078412330220669
16,-1.6009929892504716
17,-10.0626634204217
18,1.7118328411567863
2,1, 1, 1, 0, 4,45.00,60.00,Tuesday
7,-11.1
8,0.0
9,0.0
10,0.0
11,0.0
12,0.0
13,0.0
14,1.2201771407583824
15,-12.052299517348315
16,-1.63978705141119
17,-10.087777919965788
18,1.6688724859312705
2,1, 1, 1, 0, 5, 0.00,15.00,Tuesday
7,-10.975
8,0.0
9,0.0
10,0.0
11,0.0
12,0.0
13,0.0
14,1.1850615462919898
15,-11.930101289718677
16,-1.6413297278504616
17,-10.001025914932939
18,1.626990368892886
2,1, 1, 1, 0, 5,15.00,30.00,Tuesday
7,-10.85
8,0.0
9,0.0
10,0.0
11,0.0
12,0.0
13,0.0
14,1.1501426510007869
15,-11.80799527584318
16,-1.6449001455489452
17,-9.906452329026934
18,1.5866694331326497
2,1, 1, 1, 0, 5,30.00,45.00,Tuesday
7,-10.725
8,0.0
9,0.0
10,0.0
11,0.0
12,0.0
13,0.0
14,1.1162025382730892
15,-11.685868075198473
16,-1.6482449289261468
17,-9.811006749144042
18,1.5477056364624787
2,1, 1, 1, 0, 5,45.00,60.00,Tuesday
7,-10.6
8,0.0
9,0.0
10,0.0
11,0.0
12,0.0
13,0.0
14,1.0830893817760433
15,-11.563750619361505
16,-1.6508386255000574
17,-9.715315678504112
18,1.5097357304491688
2,1, 1, 1, 0, 6, 0.00,15.00,Tuesday
7,-10.6
8,0.0
9,0.0
10,0.0
11,0.0
12,0.0
13,0.0
14,1.0426958787585897
15,-11.564575792086679
16,-1.6817092894193593
17,-9.71797764905864
18,1.4712511199447558
2,1, 1, 1, 0, 6,15.00,30.00,Tuesday
7,-10.6
8,0.0
9,0.0
10,0.0
11,0.0
12,0.0
13,0.0
14,1.0029174198335953
15,-11.565316647487098
16,-1.714376885904926
17,-9.72411661313356
18,1.431452472236979
2,1, 1, 1, 0, 6,30.00,45.00,Tuesday
7,-10.6
8,0.0
9,0.0
10,0.0
11,0.0
12,0.0
13,0.0
14,0.9626075782446214
15,-11.566101502767526
16,-1.746991288389836
17,-9.73104031100388
18,1.3905297748327124
2,1, 1, 1, 0, 6,45.00,60.00,Tuesday
7,-10.6
8,0.0
9,0.0
10,0.0
11,0.0
12,0.0
13,0.0
14,0.9219003468621068
15,-11.566886565387602
16,-1.7826087584810467
17,-9.73638235704675
18,1.3488838750783264
2,1, 1, 1, 0, 7, 0.00,15.00,Tuesday
7,-10.6
8,0.0
9,0.0
10,0.0
11,0.0
12,0.0
13,0.0
14,0.8833167378616182
15,-11.541809145867666
16,-1.8204256491149523
17,-9.75685439976337
18,1.30728991510112
2,1, 1, 1, 0, 7,15.00,30.00,Tuesday
7,-10.6
8,0.0
9,0.0
10,0.0
11,0.0
12,0.0
13,0.0
14,0.8445413573424506
15,-11.518031239503723
16,-1.8564978453629238
17,-9.777577637382592
18,1.266185730343135
2,1, 1, 1, 0, 7,30.00,45.00,Tuesday
7,-10.6
8,0.0
9,0.0
10,0.0
11,0.0
12,0.0
13,0.0
14,0.806033034328841
15,-11.495457488753902
16,-1.8922076341349339
17,-9.79775852045509
18,1.2255816404305036
2,1, 1, 1, 0, 7,45.00,60.00,Tuesday
7,-10.6
8,0.0
9,0.0
10,0.0
11,0.0
12,0.0
13,0.0
14,0.7678154831061975
15,-11.474017356895799
16,-1.9274807274071009
17,-9.81725558911262
18,1.1853557578445129
2,1, 1, 1, 0, 8, 0.00,15.00,Tuesday
7,-10.45
8,0.0
9,0.0
10,0.0
11,0.0
12,0.0
13,0.0
14,0.728763498058689
15,-11.426051405300207
16,-1.940649876388079
17,-9.771780244434354
18,1.1451138726162722
2,1, 1, 1, 0, 8,15.00,30.00,Tuesday
7,-10.3
8,92.72910937150579
9,1.0
10,22.819555959623899
11,1.0
12,22.819555959623899
13,92.72910937150579
14,0.7987857275036217
15,-9.753083337246146
16,-1.5506797535738884
17,-9.38547016332592
18,1.1205194845951534
2,1, 1, 1, 0, 8,30.00,45.00,Tuesday
7,-10.15
8,456.34865477251767
9,1.0
10,109.75755355442667
11,1.0
12,109.75755355442667
13,456.34865477251767
14,1.1655227474336496
15,-3.3919544369937228
16,0.04765300903284242
17,-8.025490851610698
18,1.1544252548654477
2,1, 1, 1, 0, 8,45.00,60.00,Tuesday
7,-10.0
8,832.9492405126858
9,1.0
10,195.8764694434918
11,1.0
12,195.8764694434918
13,832.9492405126858
14,1.643942579192428
15,3.1124120353786495
16,1.8077499578772632
17,-6.668583559249214
18,1.2511271857782989
2,1, 1, 1, 0, 9, 0.00,15.00,Tuesday
7,-9.725
8,1211.363005700197
9,1.0
10,278.97248314719988
11,1.0
12,278.97248314719988
13,1211.363005700197
14,1.9826163474211749
15,8.275966301910618
16,3.3790110716294636
17,-5.50057783883193
18,1.3970212674602312
2,1, 1, 1, 0, 9,15.00,30.00,Tuesday
7,-9.45
8,1613.428178763408
9,1.0
10,364.91995730569456
11,1.0
12,364.91995730569456
13,1613.428178763408
14,2.371410980672912
15,13.359426906677316
16,4.923328331667278
17,-4.347759569698553
18,1.5840433152343528
2,1, 1, 1, 0, 9,30.00,45.00,Tuesday
7,-9.175
8,1883.6362198319048
9,1.0
10,420.35879993239237
11,1.0
12,420.35879993239237
13,1883.6362198319048
14,2.636783933537805
15,16.118242592852604
16,5.936880647211751
17,-3.6467171817358805
18,1.7925789672678918
2,1, 1, 1, 0, 9,45.00,60.00,Tuesday
7,-8.9
8,2165.461189244095
9,1.0
10,478.00138373643099
11,1.0
12,478.00138373643099
13,2165.461189244095
14,2.950006807419056
15,19.113796060449937
16,6.95356816915978
17,-2.919335479107758
18,2.0130844875085667
2,1, 1, 1, 0,10, 0.00,15.00,Tuesday
7,-8.350000000000002
8,2454.503525426993
9,1.0
10,536.9185644770597
11,1.0
12,536.9185644770597
13,2454.503525426993
14,3.2048765544527124
15,20.23368122815439
16,7.991870548133647
17,-2.181236983445899
18,2.2479612744005039
2,1, 1, 1, 0,10,15.00,30.00,Tuesday
7,-7.800000000000001
8,2754.429386009556
9,1.0
10,598.0969199229219
11,1.0
12,598.0969199229219
13,2754.429386009556
14,3.4847340570460627
15,21.48843012330311
16,9.049052910423314
17,-1.4462882679112
18,2.5019433081110487
2,1, 1, 1, 0,10,30.00,45.00,Tuesday
7,-7.25
8,2954.482965454429
9,1.0
10,637.6133352894237
11,1.0
12,637.6133352894237
13,2954.482965454429
14,3.696384312342366
15,21.549773231492055
16,9.787782565122712
17,-0.9502992396011223
18,2.7604862584228417
2,1, 1, 1, 0,10,45.00,60.00,Tuesday
7,-6.7
8,3151.8999943201717
9,1.0
10,676.6412284283772
11,1.0
12,676.6412284283772
13,3151.8999943201717
14,3.9266640931815339
15,21.71124986153261
16,10.502350742978706
17,-0.45796616503048429
18,3.0130079718126177
2,1, 1, 1, 0,11, 0.00,15.00,Tuesday
7,-6.275
8,3345.868852974221
9,1.0
10,715.0112779846514
11,1.0
12,715.0112779846514
13,3345.868852974221
14,4.2335925388480259
15,23.80872560475508
16,11.263306514922533
17,0.28580100194801619
18,3.2625133618153039
2,1, 1, 1, 0,11,15.00,30.00,Tuesday
7,-5.85
8,3535.2514943258636
9,1.0
10,752.5077794605232
11,1.0
12,752.5077794605232
13,3535.2514943258636
14,4.527262194286396
15,25.74369338076302
16,12.012145441891335
17,1.007955116938092
18,3.513769243569458
2,1, 1, 1, 0,11,30.00,45.00,Tuesday
7,-5.425
8,3483.74380437743
9,1.0
10,742.5988714321785
11,1.0
12,742.5988714321785
13,3483.74380437743
14,4.694445527946623
15,25.595534714235748
16,12.119214833205206
17,1.282214332620299
18,3.750681367357069
2,1, 1, 1, 0,11,45.00,60.00,Tuesday
7,-5.0
8,3407.5823508840287
9,1.0
10,727.8169025450712
11,1.0
12,727.8169025450712
13,3407.5823508840287
14,4.857385017689601
15,25.366157593772074
16,12.136895225603667
17,1.5207380391424863
18,3.961805526678069
2,1, 1, 1, 0,12, 0.00,15.00,Tuesday
7,-4.575
8,3275.1004337310589
9,1.0
10,700.3759009170325
11,1.0
12,700.3759009170325
13,3275.1004337310589
14,4.968103439818017
15,24.623410932820997
16,11.983205081595316
17,1.6846432251707598
18,4.141386296753064
2,1, 1, 1, 0,12,15.00,30.00,Tuesday
7,-4.15
8,3174.6949797219924
9,1.0
10,681.6705029034473
11,1.0
12,681.6705029034473
13,3174.6949797219924
14,5.098530199047757
15,24.29280565870006
16,11.935777888005589
17,1.9309330993334016
18,4.296874999639276
2,1, 1, 1, 0,12,30.00,45.00,Tuesday
7,-3.7249999999999998
8,2783.8100901333398
9,1.0
10,602.01865277251
11,1.0
12,602.01865277251
13,2783.8100901333398
14,5.012893461945453
15,21.264414701487316
16,11.050522274667003
17,1.6269397056656772
18,4.409090411972484
2,1, 1, 1, 0,12,45.00,60.00,Tuesday
7,-3.3
8,2271.5411752368538
9,1.0
10,493.55004396206007
11,1.0
12,493.55004396206007
13,2271.5411752368538
14,4.828835068241538
15,17.08576271922095
16,9.670905493291912
17,1.0320368428699567
18,4.457857023941802
2,1, 1, 1, 0,13, 0.00,15.00,Tuesday
7,-3.0249999999999996
8,1869.9181047993346
9,1.0
10,412.335026418112
11,1.0
12,412.335026418112
13,1869.9181047993346
14,4.69732423917464
15,14.241015052578259
16,8.60306244533092
17,0.6281557138845528
18,4.457508440493779
2,1, 1, 1, 0,13,15.00,30.00,Tuesday
7,-2.75
8,1364.7720925599675
9,1.0
10,305.94037763660148
11,1.0
12,305.94037763660148
13,1364.7720925599675
14,4.42659540305149
15,10.06737216578753
16,7.1122817023295969
17,-0.043610531603349048
18,4.414568658561773
2,1, 1, 1, 0,13,30.00,45.00,Tuesday
7,-2.475
8,1243.5787880607609
9,1.0
10,281.0763483922329
11,1.0
12,281.0763483922329
13,1243.5787880607609
14,4.409566536286581
15,9.5531111893996
16,6.779210408497988
17,0.04234584243613426
18,4.359342876780123
2,1, 1, 1, 0,13,45.00,60.00,Tuesday
7,-2.2
8,1124.9102185735399
9,1.0
10,256.7721209415886
11,1.0
12,256.7721209415886
13,1124.9102185735399
14,4.378572330428374
15,8.947126761953836
16,6.505587079279792
17,0.15229907852193493
18,4.3130539007027839
2,1, 1, 1, 0,14, 0.00,15.00,Tuesday
7,-1.9250000000000003
8,917.4392984854378
9,1.0
10,210.73276284570657
11,1.0
12,210.73276284570657
13,917.4392984854378
14,4.26227480282267
15,7.398563301225822
16,5.861827074358246
17,0.0056086674098878579
18,4.272126100467368
2,1, 1, 1, 0,14,15.00,30.00,Tuesday
7,-1.6500000000000002
8,812.4264218608639
9,1.0
10,189.38488290342594
11,1.0
12,189.38488290342594
13,812.4264218608639
14,4.2387259702239599
15,6.991557065056232
16,5.583229771722529
17,0.09395693473919664
18,4.236178727869093
2,1, 1, 1, 0,14,30.00,45.00,Tuesday
7,-1.375
8,775.4104044663532
9,1.0
10,179.3940297802914
11,1.0
12,179.3940297802914
13,775.4104044663532
14,4.239792804531824
15,7.113815129079369
16,5.5069958834237699
17,0.30227604985930159
18,4.2070013327782169
2,1, 1, 1, 0,14,45.00,60.00,Tuesday
7,-1.1
8,737.6273836507673
9,1.0
10,169.43349014176136
11,1.0
12,169.43349014176136
13,737.6273836507673
14,4.238036860272558
15,7.211335434948235
16,5.425422490955157
17,0.5081063470195772
18,4.184733783065486
2,1, 1, 1, 0,15, 0.00,15.00,Tuesday
7,-1.1
8,775.6602035201228
9,1.0
10,178.15692317953907
11,1.0
12,178.15692317953907
13,775.6602035201228
14,4.290333820552137
15,8.026596589112933
16,5.580764183538918
17,0.6551914269147119
18,4.172207670219141
2,1, 1, 1, 0,15,15.00,30.00,Tuesday
7,-1.1
8,728.302176463731
9,1.0
10,166.40516310952945
11,1.0
12,166.40516310952945
13,728.302176463731
14,4.250667210625948
15,7.6631595194731869
16,5.404250115119339
17,0.5720003096009805
18,4.163825113613492
2,1, 1, 1, 0,15,30.00,45.00,Tuesday
7,-1.1
8,612.8085638874686
9,1.0
10,140.8967369711617
11,1.0
12,140.8967369711617
13,612.8085638874686
14,4.155262273564506
15,6.455554383714934
16,4.964355392452035
17,0.30070487364400835
18,4.147982916073355
2,1, 1, 1, 0,15,45.00,60.00,Tuesday
7,-1.1
8,503.1888467393635
9,1.0
10,116.57355796743004
11,1.0
12,116.57355796743004
13,503.1888467393635
14,4.050020078702458
15,5.240974819045461
16,4.515598121919652
17,0.01537376170904281
18,4.1170950833437589
2,1, 1, 1, 0,16, 0.00,15.00,Tuesday
7,-1.1
8,398.48322279726718
9,1.0
10,93.14939272689483
11,1.0
12,93.14939272689483
13,398.48322279726718
14,3.9614156778100746
15,4.189593461498719
16,4.075688143609682
17,-0.20699430486342863
18,4.071925580213026
2,1, 1, 1, 0,16,15.00,30.00,Tuesday
7,-1.1
8,246.80377218773948
9,1.0
10,57.94047897402063
11,1.0
12,57.94047897402063
13,246.80377218773948
14,3.7922845898651018
15,2.0602999224038287
16,3.407550737519955
17,-0.6198108942134013
18,4.007901361021469
2,1, 1, 1, 0,16,30.00,45.00,Tuesday
7,-1.1
8,190.92645271920456
9,1.0
10,45.38251793443488
11,1.0
12,45.38251793443488
13,190.92645271920456
14,3.7302384888827078
15,1.444464555594926
16,3.148827879482667
17,-0.732515579788469
18,3.933159942336104
2,1, 1, 1, 0,16,45.00,60.00,Tuesday
7,-1.1
8,133.02928180200804
9,1.0
10,32.02625108222755
11,1.0
12,32.02625108222755
13,133.02928180200804
14,3.6344219694892767
15,0.5744886324780966
16,2.8911818270231608
17,-0.862713654541551
18,3.8546705651345
2,1, 1, 1, 0,17, 0.00,15.00,Tuesday
7,-1.1
8,72.88010281715987
9,1.0
10,17.762198626050539
11,1.0
12,17.762198626050539
13,72.88010281715987
14,3.5097534155057557
15,-0.6859598321175878
16,2.56940952143583
17,-1.1226603907206823
18,3.7692404393051555
2,1, 1, 1, 0,17,15.00,30.00,Tuesday
7,-1.1
8,0.0
9,0.0
10,0.0
11,0.0
12,0.0
13,0.0
14,3.3356164577340556
15,-2.5273249482614177
16,2.165737989942386
17,-1.4783517312804407
18,3.670730582375333
2,1, 1, 1, 0,17,30.00,45.00,Tuesday
7,-1.1
8,0.0
9,0.0
10,0.0
11,0.0
12,0.0
13,0.0
14,3.286280799038589
15,-2.667145160291463
16,2.0771733290975478
17,-1.523904991021368
18,3.574596941689152
2,1, 1, 1, 0,17,45.00,60.00,Tuesday
7,-1.1
8,0.0
9,0.0
10,0.0
11,0.0
12,0.0
13,0.0
14,3.2227374860678195
15,-2.865395732405699
16,2.020581150860721
17,-1.5729905206126205
18,3.4939824500902767
2,1, 1, 1, 0,18, 0.00,15.00,Tuesday
7,-1.25
8,0.0
9,0.0
10,0.0
11,0.0
12,0.0
13,0.0
14,3.170923272229401
15,-3.0122874575219105
16,1.9358438585660452
17,-1.7129519555342654
18,3.4304156338209235
2,1, 1, 1, 0,18,15.00,30.00,Tuesday
7,-1.4
8,0.0
9,0.0
10,0.0
11,0.0
12,0.0
13,0.0
14,3.1241759655904994
15,-3.164653939229006
16,1.8655140250578484
17,-1.8411399690486406
18,3.3794594760698608
2,1, 1, 1, 0,18,30.00,45.00,Tuesday
7,-1.5499999999999999
8,0.0
9,0.0
10,0.0
11,0.0
12,0.0
13,0.0
14,3.0818089020188497
15,-3.3164299570252515
16,1.799253056264206
17,-1.968802533479959
18,3.336037231746698
2,1, 1, 1, 0,18,45.00,60.00,Tuesday
7,-1.7
8,0.0
9,0.0
10,0.0
11,0.0
12,0.0
13,0.0
14,3.0417527003925675
15,-3.4683767489097527
16,1.7361108806604762
17,-2.0954473851983268
18,3.2966534969671166
2,1, 1, 1, 0,19, 0.00,15.00,Tuesday
7,-1.825
8,0.0
9,0.0
10,0.0
11,0.0
12,0.0
13,0.0
14,3.0299149939574909
15,-3.3098963051040877
16,1.696682184096403
17,-2.1469869717900567
18,3.263256713902165
2,1, 1, 1, 0,19,15.00,30.00,Tuesday
7,-1.9500000000000002
8,0.0
9,0.0
10,0.0
11,0.0
12,0.0
13,0.0
14,3.0163958514631035
15,-3.2341254943792547
16,1.6599815316213267
17,-2.21774205204963
18,3.237401081656721
2,1, 1, 1, 0,19,30.00,45.00,Tuesday
7,-2.075
8,0.0
9,0.0
10,0.0
11,0.0
12,0.0
13,0.0
14,2.9979969017003764
15,-3.305442341345294
16,1.6204789801389553
17,-2.3113124144425685
18,3.217323188493947
2,1, 1, 1, 0,19,45.00,60.00,Tuesday
7,-2.2
8,0.0
9,0.0
10,0.0
11,0.0
12,0.0
13,0.0
14,2.981743984344459
15,-3.275241040812834
16,1.585482458392562
17,-2.394285408796236
18,3.199846435131379
2,1, 1, 1, 0,20, 0.00,15.00,Tuesday
7,-1.9250000000000003
8,0.0
9,0.0
10,0.0
11,0.0
12,0.0
13,0.0
14,2.9830465220938797
15,-2.972018662664896
16,1.6425754407444516
17,-2.175149148392279
18,3.185180059593732
2,1, 1, 1, 0,20,15.00,30.00,Tuesday
7,-1.6500000000000002
8,0.0
9,0.0
10,0.0
11,0.0
12,0.0
13,0.0
14,2.985354625859021
15,-2.672058270268322
16,1.7002293477374906
17,-1.945423668715648
18,3.1738433702278705
2,1, 1, 1, 0,20,30.00,45.00,Tuesday
7,-1.375
8,0.0
9,0.0
10,0.0
11,0.0
12,0.0
13,0.0
14,2.9884123141702125
15,-2.373486741081282
16,1.759702745283903
17,-1.7135928026100374
18,3.165435886541415
2,1, 1, 1, 0,20,45.00,60.00,Tuesday
7,-1.1
8,0.0
9,0.0
10,0.0
11,0.0
12,0.0
13,0.0
14,2.9929681273978456
15,-2.076221799291317
16,1.8208783485733875
17,-1.4800126295787096
18,3.1592181063201174
2,1, 1, 1, 0,21, 0.00,15.00,Tuesday
7,-1.25
8,0.0
9,0.0
10,0.0
11,0.0
12,0.0
13,0.0
14,2.952444264106571
15,-2.3655414671653007
16,1.7676543128507092
17,-1.615182791281427
18,3.1484778754191038
2,1, 1, 1, 0,21,15.00,30.00,Tuesday
7,-1.4
8,0.0
9,0.0
10,0.0
11,0.0
12,0.0
13,0.0
14,2.91335979806374
15,-2.5863882863180027
16,1.7118248161456223
17,-1.7451494286865455
18,3.1284383162031466
2,1, 1, 1, 0,21,30.00,45.00,Tuesday
7,-1.5499999999999999
8,0.0
9,0.0
10,0.0
11,0.0
12,0.0
13,0.0
14,2.8601698344428438
15,-2.941468431344684
16,1.6470692121037019
17,-1.8945834128059005
18,3.0978254804731044
2,1, 1, 1, 0,21,45.00,60.00,Tuesday
7,-1.7
8,0.0
9,0.0
10,0.0
11,0.0
12,0.0
13,0.0
14,2.8016104932270635
15,-3.405625223589408
16,1.5693692122323456
17,-2.067751782324933
18,3.0584885444710809
2,1, 1, 1, 0,22, 0.00,15.00,Tuesday
7,-1.5499999999999999
8,0.0
9,0.0
10,0.0
11,0.0
12,0.0
13,0.0
14,2.815980094370834
15,-2.903580743273937
16,1.5902843590270664
17,-1.9121664384374527
18,3.0243747500298276
2,1, 1, 1, 0,22,15.00,30.00,Tuesday
7,-1.4
8,0.0
9,0.0
10,0.0
11,0.0
12,0.0
13,0.0
14,2.8216352677039735
15,-2.5635734569342984
16,1.626845665878136
17,-1.7643802167888226
18,3.0032979873972169
2,1, 1, 1, 0,22,30.00,45.00,Tuesday
7,-1.25
8,0.0
9,0.0
10,0.0
11,0.0
12,0.0
13,0.0
14,2.8250190806787187
15,-2.3390779641402967
16,1.6595246875363615
17,-1.6334281448898765
18,2.993325240286196
2,1, 1, 1, 0,22,45.00,60.00,Tuesday
7,-1.1
8,0.0
9,0.0
10,0.0
11,0.0
12,0.0
13,0.0
14,2.8322792570673678
15,-2.048610074110316
16,1.7010974209034089
17,-1.4844835372110766
18,2.98940364930606
2,1, 1, 1, 0,23, 0.00,15.00,Tuesday
7,-1.25
8,0.0
9,0.0
10,0.0
11,0.0
12,0.0
13,0.0
14,2.7919506079623295
15,-2.3522434993342888
16,1.6093688020700939
17,-1.75350486117145
18,2.98116947239061
2,1, 1, 1, 0,23,15.00,30.00,Tuesday
7,-1.4
8,0.0
9,0.0
10,0.0
11,0.0
12,0.0
13,0.0
14,2.754127653702528
15,-2.6567745710126835
16,1.5081796216581438
17,-2.041084457576005
18,2.9630467466532135
2,1, 1, 1, 0,23,30.00,45.00,Tuesday
7,-1.5499999999999999
8,0.0
9,0.0
10,0.0
11,0.0
12,0.0
13,0.0
14,2.7122300723256855
15,-2.9619357478795917
16,1.4060227939754669
17,-2.328866867178249
18,2.935633880680242
2,1, 1, 1, 0,23,45.00,60.00,Tuesday
7,-1.7
8,0.0
9,0.0
10,0.0
11,0.0
12,0.0
13,0.0
14,2.66655813407582
15,-3.267445436049092
16,1.3005146490019684
17,-2.617217759298569
18,2.9016484771040798
2,1, 1, 1, 0,24, 0.00,15.00,Tuesday
7,-1.7
8,0.0
9,0.0
10,0.0
11,0.0
12,0.0
13,0.0
14,2.638751307381267
15,-3.3212267129807295
16,1.2588920585855022
17,-2.6772041872160345
18,2.8666733207113368
2,1, 1, 1, 0,24,15.00,30.00,Tuesday
7,-1.7
8,0.0
9,0.0
10,0.0
11,0.0
12,0.0
13,0.0
14,2.6078435055175288
15,-3.375777970200448
16,1.2211116832428389
17,-2.7359809792741318
18,2.8338355827571939
2,1, 1, 1, 0,24,30.00,45.00,Tuesday
7,-1.7
8,0.0
9,0.0
10,0.0
11,0.0
12,0.0
13,0.0
14,2.5777589219596606
15,-3.4301853016563235
16,1.182785538674807
17,-2.794925889938611
18,2.803314862228651
2,1, 1, 1, 0,24,45.00,60.00,Tuesday
7,-1.7
8,0.0
9,0.0
10,0.0
11,0.0
12,0.0
13,0.0
14,2.5483527908202148
15,-3.4845933097883496
16,1.1451910987364614
17,-2.8536214658010978
18,2.774237663235919
End of Data
 Number of Records Written=        1152
