Program Version,EnergyPlus, Version 9.5.0-de239b2e5f, YMD=2023.02.17 18:12
1,5,Environment Title[],Latitude[deg],Longitude[deg],Time Zone[],Elevation[m]
2,8,Day of Simulation[],Month[],Day of Month[],DST Indicator[1=yes 0=no],Hour[],StartMinute[],EndMinute[],DayType
3,5,Cumulative Day of Simulation[],Month[],Day of Month[],DST Indicator[1=yes 0=no],DayType  ! When Daily Report Variables Requested
4,2,Cumulative Days of Simulation[],Month[]  ! When Monthly Report Variables Requested
5,1,Cumulative Days of Simulation[] ! When Run Period Report Variables Requested
6,1,Calendar Year of Simulation[] ! When Annual Report Variables Requested
7,1,Environment,Site Outdoor Air Drybulb Temperature [C] !TimeStep
8,1,ZONE ONE,Zone Windows Total Transmitted Solar Radiation Rate [W] !TimeStep
9,1,ZN001:WALL001,Surface Outside Face Sunlit Fraction [] !TimeStep
10,1,ZN001:WALL001,Surface Outside Face Incident Solar Radiation Rate per Area [W/m2] !TimeStep
11,1,ZN001:WALL001:WIN001,Surface Outside Face Sunlit Fraction [] !TimeStep
12,1,ZN001:WALL001:WIN001,Surface Outside Face Incident Solar Radiation Rate per Area [W/m2] !TimeStep
13,1,ZN001:WALL001:WIN001,Surface Window Transmitted Solar Radiation Rate [W] !TimeStep
14,1,ZN001:WALL001,Surface Inside Face Temperature [C] !TimeStep
15,1,ZN001:WALL001,Surface Outside Face Temperature [C] !TimeStep
16,1,ZN001:WALL001:WIN001,Surface Inside Face Temperature [C] !TimeStep
17,1,ZN001:WALL001:WIN001,Surface Outside Face Temperature [C] !TimeStep
18,1,ZONE ONE,Zone Mean Air Temperature [C] !TimeStep
End of Data Dictionary
1,RUN PERIOD 1,  41.98, -87.92,  -6.00, 201.00
2,1, 1, 1, 0, 1, 0.00,15.00,Tuesday
7,-4.324999999999999
8,0.0
9,0.0
10,0.0
11,0.0
12,0.0
13,0.0
14,-0.23900784211119775
15,-6.0086073549816449
16,-1.2891695491256315
17,-5.545212166301496
18,0.06135338751802575
2,1, 1, 1, 0, 1,15.00,30.00,Tuesday
7,-6.949999999999999
8,0.0
9,0.0
10,0.0
11,0.0
12,0.0
13,0.0
14,-0.4088625028486557
15,-8.476522204570932
16,-1.8570616851828846
17,-7.676508660809134
18,-0.014297438793479559
2,1, 1, 1, 0, 1,30.00,45.00,Tuesday
7,-9.575
8,0.0
9,0.0
10,0.0
11,0.0
12,0.0
13,0.0
14,-0.5990546132871923
15,-10.953229996994532
16,-2.4238272459425618
17,-9.814556276685267
18,-0.12284229643823278
2,1, 1, 1, 0, 1,45.00,60.00,Tuesday
7,-12.2
8,0.0
9,0.0
10,0.0
11,0.0
12,0.0
13,0.0
14,-0.8052321815170533
15,-13.436396547081113
16,-3.003628096878856
17,-11.961163535602055
18,-0.2557425626463072
2,1, 1, 1, 0, 2, 0.00,15.00,Tuesday
7,-12.075
8,0.0
9,0.0
10,0.0
11,0.0
12,0.0
13,0.0
14,-0.8518268641601496
15,-13.238239309840499
16,-3.0699333910333737
17,-11.818469690150721
18,-0.3768799955421602
2,1, 1, 1, 0, 2,15.00,30.00,Tuesday
7,-11.95
8,0.0
9,0.0
10,0.0
11,0.0
12,0.0
13,0.0
14,-0.915036112614964
15,-13.06083206407018
16,-3.0898344374071486
17,-11.663261087636784
18,-0.467895109025665
2,1, 1, 1, 0, 2,30.00,45.00,Tuesday
7,-11.825
8,0.0
9,0.0
10,0.0
11,0.0
12,0.0
13,0.0
14,-0.9618765882000042
15,-12.882178865319716
16,-3.1059699716435036
17,-11.507775844030789
18,-0.5321755654030035
2,1, 1, 1, 0, 2,45.00,60.00,Tuesday
7,-11.7
8,0.0
9,0.0
10,0.0
11,0.0
12,0.0
13,0.0
14,-0.9975374972199976
15,-12.703579112855321
16,-3.1096640905856818
17,-11.350021940955287
18,-0.5796295573738572
2,1, 1, 1, 0, 3, 0.00,15.00,Tuesday
7,-11.549999999999999
8,0.0
9,0.0
10,0.0
11,0.0
12,0.0
13,0.0
14,-1.0316524674097148
15,-12.58002806726419
16,-3.108539584866435
17,-11.224879031899832
18,-0.6191033424676478
2,1, 1, 1, 0, 3,15.00,30.00,Tuesday
7,-11.399999999999999
8,0.0
9,0.0
10,0.0
11,0.0
12,0.0
13,0.0
14,-1.0621580649394387
15,-12.457947255175393
16,-3.107798610567613
17,-11.092666588992813
18,-0.6554356851752682
2,1, 1, 1, 0, 3,30.00,45.00,Tuesday
7,-11.25
8,0.0
9,0.0
10,0.0
11,0.0
12,0.0
13,0.0
14,-1.0905286220079198
15,-12.337521677371948
16,-3.105359763759907
17,-10.960069008685764
18,-0.6902311903495956
2,1, 1, 1, 0, 3,45.00,60.00,Tuesday
7,-11.1
8,0.0
9,0.0
10,0.0
11,0.0
12,0.0
13,0.0
14,-1.1193071596949725
15,-12.218853045071518
16,-3.1019192426151678
17,-10.82791570632071
18,-0.7239600268477099
2,1, 1, 1, 0, 4, 0.00,15.00,Tuesday
7,-11.1
8,0.0
9,0.0
10,0.0
11,0.0
12,0.0
13,0.0
14,-1.1522988568033859
15,-12.186753149238403
16,-3.1335685992394248
17,-10.833139631534209
18,-0.7574795417969273
2,1, 1, 1, 0, 4,15.00,30.00,Tuesday
7,-11.1
8,0.0
9,0.0
10,0.0
11,0.0
12,0.0
13,0.0
14,-1.183873636528667
15,-12.155861834111493
16,-3.1634470292036669
17,-10.841922135626135
18,-0.7911571516110333
2,1, 1, 1, 0, 4,30.00,45.00,Tuesday
7,-11.1
8,0.0
9,0.0
10,0.0
11,0.0
12,0.0
13,0.0
14,-1.2156401437899565
15,-12.126719164853692
16,-3.1923673789356146
17,-10.851405751823336
18,-0.8249470950058568
2,1, 1, 1, 0, 4,45.00,60.00,Tuesday
7,-11.1
8,0.0
9,0.0
10,0.0
11,0.0
12,0.0
13,0.0
14,-1.2474370332933538
15,-12.099140323813514
16,-3.221075321605099
17,-10.860907962146314
18,-0.8587287948613137
2,1, 1, 1, 0, 5, 0.00,15.00,Tuesday
7,-10.975
8,0.0
9,0.0
10,0.0
11,0.0
12,0.0
13,0.0
14,-1.2726432671925428
15,-11.976727516320434
16,-3.2222754045228045
17,-10.767467878532898
18,-0.8915054032420314
2,1, 1, 1, 0, 5,15.00,30.00,Tuesday
7,-10.85
8,0.0
9,0.0
10,0.0
11,0.0
12,0.0
13,0.0
14,-1.2986175312811168
15,-11.854461572040329
16,-3.2231411853448437
17,-10.666778296546568
18,-0.9228440703168709
2,1, 1, 1, 0, 5,30.00,45.00,Tuesday
7,-10.725
8,0.0
9,0.0
10,0.0
11,0.0
12,0.0
13,0.0
14,-1.3236481343200384
15,-11.732139939477495
16,-3.223929364814296
17,-10.565476108611393
18,-0.9529466904989389
2,1, 1, 1, 0, 5,45.00,60.00,Tuesday
7,-10.6
8,0.0
9,0.0
10,0.0
11,0.0
12,0.0
13,0.0
14,-1.347933008369089
15,-11.60983172897744
16,-3.2239918324584098
17,-10.463990332900665
18,-0.9821432656872011
2,1, 1, 1, 0, 6, 0.00,15.00,Tuesday
7,-10.6
8,0.0
9,0.0
10,0.0
11,0.0
12,0.0
13,0.0
14,-1.380621580475017
15,-11.610517734560576
16,-3.249190083031465
17,-10.463589317753929
18,-1.0119502083309585
2,1, 1, 1, 0, 6,15.00,30.00,Tuesday
7,-10.6
8,0.0
9,0.0
10,0.0
11,0.0
12,0.0
13,0.0
14,-1.410810552553424
15,-11.611065094814345
16,-3.2761687381693607
17,-10.4671884744605
18,-1.0429781573891673
2,1, 1, 1, 0, 6,30.00,45.00,Tuesday
7,-10.6
8,0.0
9,0.0
10,0.0
11,0.0
12,0.0
13,0.0
14,-1.4436552775041479
15,-11.611727065704708
16,-3.302477326841654
17,-10.4715790142385
18,-1.0751563157092615
2,1, 1, 1, 0, 6,45.00,60.00,Tuesday
7,-10.6
8,0.0
9,0.0
10,0.0
11,0.0
12,0.0
13,0.0
14,-1.475707130814182
15,-11.612309207131343
16,-3.3296613170248294
17,-10.476519904451266
18,-1.1080445082103039
2,1, 1, 1, 0, 7, 0.00,15.00,Tuesday
7,-10.6
8,0.0
9,0.0
10,0.0
11,0.0
12,0.0
13,0.0
14,-1.5046119325192094
15,-11.585884276053143
16,-3.357445485493372
17,-10.483064298566206
18,-1.1407321428055742
2,1, 1, 1, 0, 7,15.00,30.00,Tuesday
7,-10.6
8,0.0
9,0.0
10,0.0
11,0.0
12,0.0
13,0.0
14,-1.5346760293732152
15,-11.56085681790582
16,-3.383769796921456
17,-10.489471496654005
18,-1.1728382996084255
2,1, 1, 1, 0, 7,30.00,45.00,Tuesday
7,-10.6
8,0.0
9,0.0
10,0.0
11,0.0
12,0.0
13,0.0
14,-1.5643991235576949
15,-11.537057926873715
16,-3.410079410850358
17,-10.49585883206504
18,-1.2044508034986695
2,1, 1, 1, 0, 7,45.00,60.00,Tuesday
7,-10.6
8,0.0
9,0.0
10,0.0
11,0.0
12,0.0
13,0.0
14,-1.5938603941630528
15,-11.514454349270782
16,-3.43606658642733
17,-10.502018554452093
18,-1.235732170755118
2,1, 1, 1, 0, 8, 0.00,15.00,Tuesday
7,-10.45
8,0.0
9,0.0
10,0.0
11,0.0
12,0.0
13,0.0
14,-1.6254892518381306
15,-11.467349346917139
16,-3.450870140808888
17,-10.463722110207357
18,-1.2673829756221389
2,1, 1, 1, 0, 8,15.00,30.00,Tuesday
7,-10.3
8,43.92919895502562
9,1.0
10,22.819555959623899
11,1.0
12,22.819555959623899
13,43.92919895502562
14,-1.55705711184384
15,-9.794845352089047
16,-3.051396638542599
17,-10.093041618357347
18,-1.286342431016446
2,1, 1, 1, 0, 8,30.00,45.00,Tuesday
7,-10.15
8,217.30754917639187
9,1.0
10,109.75755355442667
11,1.0
12,109.75755355442667
13,217.30754917639187
14,-1.2202383049494723
15,-3.4412312710633796
16,-1.3708550205211623
17,-8.736994086191089
18,-1.2581825156604563
2,1, 1, 1, 0, 8,45.00,60.00,Tuesday
7,-10.0
8,399.4699535945363
9,1.0
10,195.8764694434918
11,1.0
12,195.8764694434918
13,399.4699535945363
14,-0.8055984392627097
15,3.0553370004602224
16,0.3551330935915189
17,-7.418410488918653
18,-1.176553297513571
2,1, 1, 1, 0, 9, 0.00,15.00,Tuesday
7,-9.725
8,585.1489314874541
9,1.0
10,278.97248314719988
11,1.0
12,278.97248314719988
13,585.1489314874541
14,-0.4977158471328424
15,8.237986145403069
16,1.8838252960040905
17,-6.257321757100215
18,-1.049829270512941
2,1, 1, 1, 0, 9,15.00,30.00,Tuesday
7,-9.45
8,784.787199245388
9,1.0
10,364.91995730569456
11,1.0
12,364.91995730569456
13,784.787199245388
14,-0.1566307620973052
15,13.320142406673459
16,3.4093370980409647
17,-5.107941231923746
18,-0.8859577135538546
2,1, 1, 1, 0, 9,30.00,45.00,Tuesday
7,-9.175
8,921.7412871041541
9,1.0
10,420.35879993239237
11,1.0
12,420.35879993239237
13,921.7412871041541
14,0.0680999322371936
15,16.08061831196672
16,4.416524822316887
17,-4.404081877973965
18,-0.70290209745413
2,1, 1, 1, 0, 9,45.00,60.00,Tuesday
7,-8.9
8,1065.0474005418728
9,1.0
10,478.00138373643099
11,1.0
12,478.00138373643099
13,1065.0474005418728
14,0.33622314338211697
15,19.07661433612618
16,5.429862993545612
17,-3.6710124288392764
18,-0.5075438392252258
2,1, 1, 1, 0,10, 0.00,15.00,Tuesday
7,-8.350000000000002
8,1212.3134782022194
9,1.0
10,536.9185644770597
11,1.0
12,536.9185644770597
13,1212.3134782022194
14,0.5419216375976435
15,20.19904088132487
16,6.47595204976767
17,-2.8888478208385779
18,-0.29763417470510047
2,1, 1, 1, 0,10,15.00,30.00,Tuesday
7,-7.800000000000001
8,1365.083720287943
9,1.0
10,598.0969199229219
11,1.0
12,598.0969199229219
13,1365.083720287943
14,0.7701692722081762
15,21.455684616252304
16,7.54054750279272
17,-2.0997274459657548
18,-0.07665447884600466
2,1, 1, 1, 0,10,30.00,45.00,Tuesday
7,-7.25
8,1468.1999493442264
9,1.0
10,637.6133352894237
11,1.0
12,637.6133352894237
13,1468.1999493442264
14,0.9332005714546235
15,21.51869240011051
16,8.287517972157389
17,-1.5764655483957313
18,0.14205401152951106
2,1, 1, 1, 0,10,45.00,60.00,Tuesday
7,-6.7
8,1569.705828175432
9,1.0
10,676.6412284283772
11,1.0
12,676.6412284283772
13,1569.705828175432
14,1.1094157081223755
15,21.681504434433277
16,9.007203705891982
17,-1.0467954387505643
18,0.3510787579956315
2,1, 1, 1, 0,11, 0.00,15.00,Tuesday
7,-6.275
8,1669.2149873773784
9,1.0
10,715.0112779846514
11,1.0
12,715.0112779846514
13,1669.2149873773784
14,1.3629589285863458
15,23.778538652708439
16,9.752681213185327
17,-0.28939220881568419
18,0.5543532964162308
2,1, 1, 1, 0,11,15.00,30.00,Tuesday
7,-5.85
8,1766.190944948854
9,1.0
10,752.5077794605232
11,1.0
12,752.5077794605232
13,1766.190944948854
14,1.6008695679708678
15,25.71313633248772
16,10.484602146293242
17,0.4436170890874678
18,0.7566972205480315
2,1, 1, 1, 0,11,30.00,45.00,Tuesday
7,-5.425
8,1740.4832380327117
9,1.0
10,742.5988714321785
11,1.0
12,742.5988714321785
13,1740.4832380327117
14,1.7255432111256648
15,25.564781899618884
16,10.545644138327362
17,0.7217236566549445
18,0.9443323265478558
2,1, 1, 1, 0,11,45.00,60.00,Tuesday
7,-5.0
8,1702.0518597121073
9,1.0
10,727.8169025450712
11,1.0
12,727.8169025450712
13,1702.0518597121073
14,1.8470038518455739
15,25.33488710066264
16,10.514137340811772
17,0.9629635779864429
18,1.1081085392745598
2,1, 1, 1, 0,12, 0.00,15.00,Tuesday
7,-4.575
8,1635.6982778457269
9,1.0
10,700.3759009170325
11,1.0
12,700.3759009170325
13,1635.6982778457269
14,1.9245647065464347
15,24.591730812760067
16,10.305978867245699
17,1.1313995655941654
18,1.2442829097619164
2,1, 1, 1, 0,12,15.00,30.00,Tuesday
7,-4.15
8,1584.1822507707826
9,1.0
10,681.6705029034473
11,1.0
12,681.6705029034473
13,1584.1822507707826
14,2.019371776467492
15,24.26070745629551
16,10.20320053253954
17,1.3776422219091274
18,1.3592921844373356
2,1, 1, 1, 0,12,30.00,45.00,Tuesday
7,-3.7249999999999998
8,1386.7884648429923
9,1.0
10,602.01865277251
11,1.0
12,602.01865277251
13,1386.7884648429923
14,1.9258200055722088
15,21.232143496338396
16,9.236797195580096
17,1.0739711468303313
18,1.4382747078363476
2,1, 1, 1, 0,12,45.00,60.00,Tuesday
7,-3.3
8,1130.2896420139664
9,1.0
10,493.55004396206007
11,1.0
12,493.55004396206007
13,1130.2896420139664
14,1.751423268147259
15,17.053036563613298
16,7.784263613557016
17,0.4892407292836083
18,1.4665012875564428
2,1, 1, 1, 0,13, 0.00,15.00,Tuesday
7,-3.0249999999999996
8,926.9697700398867
9,1.0
10,412.335026418112
11,1.0
12,412.335026418112
13,926.9697700398867
14,1.6358488888581114
15,14.207592881643088
16,6.652927281027587
17,0.08205674908117544
18,1.451102630114328
2,1, 1, 1, 0,13,15.00,30.00,Tuesday
7,-2.75
8,673.6692877186736
9,1.0
10,305.94037763660148
11,1.0
12,305.94037763660148
13,673.6692877186736
14,1.4096394230958234
15,10.03348799413719
16,5.105783701361474
17,-0.5833784977500613
18,1.395983341508638
2,1, 1, 1, 0,13,30.00,45.00,Tuesday
7,-2.475
8,612.4821658219637
9,1.0
10,281.0763483922329
11,1.0
12,281.0763483922329
13,612.4821658219637
14,1.388189798455241
15,9.519132653382025
16,4.757396589918017
17,-0.4943424188183485
18,1.3334939315367383
2,1, 1, 1, 0,13,45.00,60.00,Tuesday
7,-2.2
8,552.552520277972
9,1.0
10,256.7721209415886
11,1.0
12,256.7721209415886
13,552.552520277972
14,1.359857382321164
15,8.912360160573899
16,4.44626778945252
17,-0.38421062661632279
18,1.2838093623956415
2,1, 1, 1, 0,14, 0.00,15.00,Tuesday
7,-1.9250000000000003
8,449.8411357962977
9,1.0
10,210.73276284570657
11,1.0
12,210.73276284570657
13,449.8411357962977
14,1.2700401762480072
15,7.363018694154108
16,3.774769112580884
17,-0.5289998183761782
18,1.242187845039393
2,1, 1, 1, 0,14,15.00,30.00,Tuesday
7,-1.6500000000000002
8,396.7537665575463
9,1.0
10,189.38488290342594
11,1.0
12,189.38488290342594
13,396.7537665575463
14,1.2506533152355389
15,6.955431525061009
16,3.4782372106095638
17,-0.4462692263329586
18,1.2078957983095427
2,1, 1, 1, 0,14,30.00,45.00,Tuesday
7,-1.375
8,379.3266897359249
9,1.0
10,179.3940297802914
11,1.0
12,179.3940297802914
13,379.3266897359249
14,1.2573541299037108
15,7.074688055002244
16,3.384584443288645
17,-0.24070308902605576
18,1.1821015635531656
2,1, 1, 1, 0,14,45.00,60.00,Tuesday
7,-1.1
8,361.3465167603399
9,1.0
10,169.43349014176136
11,1.0
12,169.43349014176136
13,361.3465167603399
14,1.2605807827571157
15,7.170945127663184
16,3.290323321622509
17,-0.03700977456594501
18,1.1642637498202618
2,1, 1, 1, 0,15, 0.00,15.00,Tuesday
7,-1.1
8,379.75098608822659
9,1.0
10,178.15692317953907
11,1.0
12,178.15692317953907
13,379.75098608822659
14,1.3045356671571147
15,7.984250664955898
16,3.44063354938487
17,0.09428316366336276
18,1.1561335243930862
2,1, 1, 1, 0,15,15.00,30.00,Tuesday
7,-1.1
8,356.65544888641286
9,1.0
10,166.40516310952945
11,1.0
12,166.40516310952945
13,356.65544888641286
14,1.2746968793736487
15,7.620280254201152
16,3.2580755812330155
17,0.0007350082029233818
18,1.1518597581316608
2,1, 1, 1, 0,15,30.00,45.00,Tuesday
7,-1.1
8,299.30897077907687
9,1.0
10,140.8967369711617
11,1.0
12,140.8967369711617
13,299.30897077907687
14,1.1976218304566462
15,6.411703117089018
16,2.8210745665340939
17,-0.2789539092286759
18,1.1396480791657844
2,1, 1, 1, 0,15,45.00,60.00,Tuesday
7,-1.1
8,245.01101588106585
9,1.0
10,116.57355796743004
11,1.0
12,116.57355796743004
13,245.01101588106585
14,1.1145821610407727
15,5.1989858865672009
16,2.3845724753938386
17,-0.5732567503963537
18,1.113739987070824
2,1, 1, 1, 0,16, 0.00,15.00,Tuesday
7,-1.1
8,193.3619366811613
9,1.0
10,93.14939272689483
11,1.0
12,93.14939272689483
13,193.3619366811613
14,1.0273251716491486
15,4.131605345442629
16,1.9652273929295916
17,-0.8102064892946146
18,1.0756002692854086
2,1, 1, 1, 0,16,15.00,30.00,Tuesday
7,-1.1
8,119.36636342751545
9,1.0
10,57.94047897402063
11,1.0
12,57.94047897402063
13,119.36636342751545
14,0.8812146705354907
15,2.005253966071284
16,1.2944248680181545
17,-1.245952223187544
18,1.0229927733170264
2,1, 1, 1, 0,16,30.00,45.00,Tuesday
7,-1.1
8,91.9639739168048
9,1.0
10,45.38251793443488
11,1.0
12,45.38251793443488
13,91.9639739168048
14,0.8300778109769762
15,1.3852074011233438
16,1.0075715061322513
17,-1.3986546849502589
18,0.9631774879709204
2,1, 1, 1, 0,16,45.00,60.00,Tuesday
7,-1.1
8,63.83988587375654
9,1.0
10,32.02625108222755
11,1.0
12,32.02625108222755
13,63.83988587375654
14,0.7480799403832588
15,0.509294318854344
16,0.7153288008240111
17,-1.5704203296322704
18,0.9019406803964094
2,1, 1, 1, 0,17, 0.00,15.00,Tuesday
7,-1.1
8,34.880124245395318
9,1.0
10,17.762198626050539
11,1.0
12,17.762198626050539
13,34.880124245395318
14,0.6381192218443365
15,-0.759069801067686
16,0.37938132729817655
17,-1.8701857075272984
18,0.8366551198094789
2,1, 1, 1, 0,17,15.00,30.00,Tuesday
7,-1.1
8,0.0
9,0.0
10,0.0
11,0.0
12,0.0
13,0.0
14,0.4817686728774416
15,-2.603333621979059
16,-0.018109293439124487
17,-2.1923256102303414
18,0.7572375639036687
2,1, 1, 1, 0,17,30.00,45.00,Tuesday
7,-1.1
8,0.0
9,0.0
10,0.0
11,0.0
12,0.0
13,0.0
14,0.44450581671721087
15,-2.746150987668751
16,-0.10577268741894841
17,-2.272468570940987
18,0.6733666168353306
2,1, 1, 1, 0,17,45.00,60.00,Tuesday
7,-1.1
8,0.0
9,0.0
10,0.0
11,0.0
12,0.0
13,0.0
14,0.38999703585509107
15,-2.950681115818504
16,-0.16193561658275258
17,-2.359700235689729
18,0.5978827037858042
2,1, 1, 1, 0,18, 0.00,15.00,Tuesday
7,-1.25
8,0.0
9,0.0
10,0.0
11,0.0
12,0.0
13,0.0
14,0.34599207521610006
15,-3.096791115432961
16,-0.23456134088587533
17,-2.5021020227803776
18,0.5364677760882931
2,1, 1, 1, 0,18,15.00,30.00,Tuesday
7,-1.4
8,0.0
9,0.0
10,0.0
11,0.0
12,0.0
13,0.0
14,0.30675141509815287
15,-3.249190954648361
16,-0.29448245898197458
17,-2.6295651785729889
18,0.4879310382505604
2,1, 1, 1, 0,18,30.00,45.00,Tuesday
7,-1.5499999999999999
8,0.0
9,0.0
10,0.0
11,0.0
12,0.0
13,0.0
14,0.2707843995840905
15,-3.4009040836504629
16,-0.353001743352479
17,-2.7623586268434225
18,0.44840640146939089
2,1, 1, 1, 0,18,45.00,60.00,Tuesday
7,-1.7
8,0.0
9,0.0
10,0.0
11,0.0
12,0.0
13,0.0
14,0.2376462388603267
15,-3.5526700980466106
16,-0.4084454280522323
17,-2.8942779748407476
18,0.4143759843623032
2,1, 1, 1, 0,19, 0.00,15.00,Tuesday
7,-1.825
8,0.0
9,0.0
10,0.0
11,0.0
12,0.0
13,0.0
14,0.23440804904460756
15,-3.3845741154125448
16,-0.4283092943657607
17,-2.8948253499189606
18,0.38741989258953365
2,1, 1, 1, 0,19,15.00,30.00,Tuesday
7,-1.9500000000000002
8,0.0
9,0.0
10,0.0
11,0.0
12,0.0
13,0.0
14,0.23033892584801306
15,-3.3003075082660024
16,-0.44350597792612236
17,-2.9076853493905334
18,0.36875974991799989
2,1, 1, 1, 0,19,30.00,45.00,Tuesday
7,-2.075
8,0.0
9,0.0
10,0.0
11,0.0
12,0.0
13,0.0
14,0.2214775557161284
15,-3.3693061766816876
16,-0.46934528397753186
17,-2.9886838587182185
18,0.35652248908479858
2,1, 1, 1, 0,19,45.00,60.00,Tuesday
7,-2.2
8,0.0
9,0.0
10,0.0
11,0.0
12,0.0
13,0.0
14,0.21508916256313524
15,-3.331548328250038
16,-0.48125170720857116
17,-3.0243496718616145
18,0.3476576157956599
2,1, 1, 1, 0,20, 0.00,15.00,Tuesday
7,-1.9250000000000003
8,0.0
9,0.0
10,0.0
11,0.0
12,0.0
13,0.0
14,0.2244800024895852
15,-3.0263690963069269
16,-0.4225456089550903
17,-2.7768865816091194
18,0.3416500559247428
2,1, 1, 1, 0,20,15.00,30.00,Tuesday
7,-1.6500000000000002
8,0.0
9,0.0
10,0.0
11,0.0
12,0.0
13,0.0
14,0.2359524204525259
15,-2.7246081101473207
16,-0.36269293730890697
17,-2.5253353034193539
18,0.3386458397019664
2,1, 1, 1, 0,20,30.00,45.00,Tuesday
7,-1.375
8,0.0
9,0.0
10,0.0
11,0.0
12,0.0
13,0.0
14,0.24872686375554993
15,-2.424362308782265
16,-0.3007762592301333
17,-2.2726870882971186
18,0.3383523371961836
2,1, 1, 1, 0,20,45.00,60.00,Tuesday
7,-1.1
8,0.0
9,0.0
10,0.0
11,0.0
12,0.0
13,0.0
14,0.26291452994915839
15,-2.1255369420536205
16,-0.23723173368068729
17,-2.019121737570515
18,0.34021241385969938
2,1, 1, 1, 0,21, 0.00,15.00,Tuesday
7,-1.25
8,0.0
9,0.0
10,0.0
11,0.0
12,0.0
13,0.0
14,0.2314831551350204
15,-2.4228795177616284
16,-0.2893993838379174
17,-2.2192948918003596
18,0.33858364321181647
2,1, 1, 1, 0,21,15.00,30.00,Tuesday
7,-1.4
8,0.0
9,0.0
10,0.0
11,0.0
12,0.0
13,0.0
14,0.1970363370863876
15,-2.647930890261169
16,-0.3445121715217283
17,-2.372095952663244
18,0.32846248466607866
2,1, 1, 1, 0,21,30.00,45.00,Tuesday
7,-1.5499999999999999
8,0.0
9,0.0
10,0.0
11,0.0
12,0.0
13,0.0
14,0.14970637229669873
15,-3.013074054036461
16,-0.41537302100948639
17,-2.5975994372115567
18,0.30778958499126959
2,1, 1, 1, 0,21,45.00,60.00,Tuesday
7,-1.7
8,0.0
9,0.0
10,0.0
11,0.0
12,0.0
13,0.0
14,0.0973729535774957
15,-3.488607434848343
16,-0.5027527427264431
17,-2.847300239290462
18,0.27769548041951616
2,1, 1, 1, 0,22, 0.00,15.00,Tuesday
7,-1.5499999999999999
8,0.0
9,0.0
10,0.0
11,0.0
12,0.0
13,0.0
14,0.12265106846891931
15,-2.972799673401695
16,-0.4637957359622078
17,-2.587270131823459
18,0.25172990881773169
2,1, 1, 1, 0,22,15.00,30.00,Tuesday
7,-1.4
8,0.0
9,0.0
10,0.0
11,0.0
12,0.0
13,0.0
14,0.1397113611697711
15,-2.623487268481758
16,-0.40943208945884637
17,-2.3716112883330995
18,0.23802468746929493
2,1, 1, 1, 0,22,30.00,45.00,Tuesday
7,-1.25
8,0.0
9,0.0
10,0.0
11,0.0
12,0.0
13,0.0
14,0.1535852686575601
15,-2.394787112606544
16,-0.3634864197118759
17,-2.2156847777434907
18,0.23530399661790939
2,1, 1, 1, 0,22,45.00,60.00,Tuesday
7,-1.1
8,0.0
9,0.0
10,0.0
11,0.0
12,0.0
13,0.0
14,0.1711065670663657
15,-2.096712552221609
16,-0.3095655137771587
17,-2.000685241582687
18,0.23895452766680323
2,1, 1, 1, 0,23, 0.00,15.00,Tuesday
7,-1.25
8,0.0
9,0.0
10,0.0
11,0.0
12,0.0
13,0.0
14,0.1391639448982195
15,-2.4008364179862227
16,-0.3814888989213614
17,-2.28729264401602
18,0.23986356310671326
2,1, 1, 1, 0,23,15.00,30.00,Tuesday
7,-1.4
8,0.0
9,0.0
10,0.0
11,0.0
12,0.0
13,0.0
14,0.10750875291038309
15,-2.7053521302703724
16,-0.4674374690421246
17,-2.5815413622734129
18,0.23223177154484973
2,1, 1, 1, 0,23,30.00,45.00,Tuesday
7,-1.5499999999999999
8,0.0
9,0.0
10,0.0
11,0.0
12,0.0
13,0.0
14,0.07322231144050759
15,-3.0103596561725785
16,-0.5545483489424328
17,-2.8757685367793899
18,0.21571481523077866
2,1, 1, 1, 0,23,45.00,60.00,Tuesday
7,-1.7
8,0.0
9,0.0
10,0.0
11,0.0
12,0.0
13,0.0
14,0.03460598696718443
15,-3.3157471789962247
16,-0.6442803172518552
17,-3.1703243270941359
18,0.19225270650597346
2,1, 1, 1, 0,24, 0.00,15.00,Tuesday
7,-1.7
8,0.0
9,0.0
10,0.0
11,0.0
12,0.0
13,0.0
14,0.01565986298379912
15,-3.3691877348639309
16,-0.6782056281215319
17,-3.227645421410159
18,0.16688855063696268
2,1, 1, 1, 0,24,15.00,30.00,Tuesday
7,-1.7
8,0.0
9,0.0
10,0.0
11,0.0
12,0.0
13,0.0
14,-0.006430249448111586
15,-3.423593811601753
16,-0.7073633792014107
17,-3.285413118003021
18,0.14286984255299393
2,1, 1, 1, 0,24,30.00,45.00,Tuesday
7,-1.7
8,0.0
9,0.0
10,0.0
11,0.0
12,0.0
13,0.0
14,-0.028091828017380799
15,-3.477862975214506
16,-0.7373145070388318
17,-3.3434995502811377
18,0.12075140430625948
2,1, 1, 1, 0,24,45.00,60.00,Tuesday
7,-1.7
8,0.0
9,0.0
10,0.0
11,0.0
12,0.0
13,0.0
14,-0.049277513525328258
15,-3.532128573262554
16,-0.7667735530718574
17,-3.401436393609174
18,0.09994877163234838
End of Data
 Number of Records Written=        1152
