Program Version,EnergyPlus, Version 9.5.0-de239b2e5f, YMD=2023.02.17 18:13
1,5,Environment Title[],Latitude[deg],Longitude[deg],Time Zone[],Elevation[m]
2,8,Day of Simulation[],Month[],Day of Month[],DST Indicator[1=yes 0=no],Hour[],StartMinute[],EndMinute[],DayType
3,5,Cumulative Day of Simulation[],Month[],Day of Month[],DST Indicator[1=yes 0=no],DayType  ! When Daily Report Variables Requested
4,2,Cumulative Days of Simulation[],Month[]  ! When Monthly Report Variables Requested
5,1,Cumulative Days of Simulation[] ! When Run Period Report Variables Requested
6,1,Calendar Year of Simulation[] ! When Annual Report Variables Requested
7,1,Environment,Site Outdoor Air Drybulb Temperature [C] !TimeStep
8,1,ZONE ONE,Zone Windows Total Transmitted Solar Radiation Rate [W] !TimeStep
9,1,ZN001:WALL001,Surface Outside Face Sunlit Fraction [] !TimeStep
10,1,ZN001:WALL001,Surface Outside Face Incident Solar Radiation Rate per Area [W/m2] !TimeStep
11,1,ZN001:WALL001:WIN001,Surface Outside Face Sunlit Fraction [] !TimeStep
12,1,ZN001:WALL001:WIN001,Surface Outside Face Incident Solar Radiation Rate per Area [W/m2] !TimeStep
13,1,ZN001:WALL001:WIN001,Surface Window Transmitted Solar Radiation Rate [W] !TimeStep
14,1,ZN001:WALL001,Surface Inside Face Temperature [C] !TimeStep
15,1,ZN001:WALL001,Surface Outside Face Temperature [C] !TimeStep
16,1,ZN001:WALL001:WIN001,Surface Inside Face Temperature [C] !TimeStep
17,1,ZN001:WALL001:WIN001,Surface Outside Face Temperature [C] !TimeStep
18,1,ZONE ONE,Zone Mean Air Temperature [C] !TimeStep
End of Data Dictionary
1,RUN PERIOD 1,  41.98, -87.92,  -6.00, 201.00
2,1, 1, 1, 0, 1, 0.00,15.00,Tuesday
7,-4.324999999999999
8,0.0
9,0.0
10,0.0
11,0.0
12,0.0
13,0.0
14,5.823308414814324
15,-5.897891710828435
16,3.079365124797448
17,-4.066379297894855
18,6.274603470047975
2,1, 1, 1, 0, 1,15.00,30.00,Tuesday
7,-6.949999999999999
8,0.0
9,0.0
10,0.0
11,0.0
12,0.0
13,0.0
14,5.6386506515117
15,-8.365376610167333
16,2.3942600109143088
17,-6.092500769101207
18,6.17298136028865
2,1, 1, 1, 0, 1,30.00,45.00,Tuesday
7,-9.575
8,0.0
9,0.0
10,0.0
11,0.0
12,0.0
13,0.0
14,5.433193825442637
15,-10.840886658505305
16,1.7030707307791318
17,-8.124766439637938
18,6.038325137068512
2,1, 1, 1, 0, 1,45.00,60.00,Tuesday
7,-12.2
8,0.0
9,0.0
10,0.0
11,0.0
12,0.0
13,0.0
14,5.211275184028576
15,-13.323020554250258
16,0.9971265943638628
17,-10.164888211609423
18,5.880826076754485
2,1, 1, 1, 0, 2, 0.00,15.00,Tuesday
7,-12.075
8,0.0
9,0.0
10,0.0
11,0.0
12,0.0
13,0.0
14,5.139851569201662
15,-13.124086105756187
16,0.9398096687515363
17,-10.013720262819334
18,5.739325488924629
2,1, 1, 1, 0, 2,15.00,30.00,Tuesday
7,-11.95
8,0.0
9,0.0
10,0.0
11,0.0
12,0.0
13,0.0
14,5.055023543608132
15,-12.947064653067827
16,0.9115643819499155
17,-9.87767786718939
18,5.631226048807838
2,1, 1, 1, 0, 2,30.00,45.00,Tuesday
7,-11.825
8,0.0
9,0.0
10,0.0
11,0.0
12,0.0
13,0.0
14,4.988079355197685
15,-12.768855606426757
16,0.8895724266151319
17,-9.740928073716418
18,5.550688510915047
2,1, 1, 1, 0, 2,45.00,60.00,Tuesday
7,-11.7
8,0.0
9,0.0
10,0.0
11,0.0
12,0.0
13,0.0
14,4.932782438079515
15,-12.590727376928062
16,0.8844514958886975
17,-9.61088623633509
18,5.486229737216902
2,1, 1, 1, 0, 3, 0.00,15.00,Tuesday
7,-11.549999999999999
8,0.0
9,0.0
10,0.0
11,0.0
12,0.0
13,0.0
14,4.879269186141399
15,-12.464514254892153
16,0.8808310075426107
17,-9.454517326922883
18,5.428527132160426
2,1, 1, 1, 0, 3,15.00,30.00,Tuesday
7,-11.399999999999999
8,0.0
9,0.0
10,0.0
11,0.0
12,0.0
13,0.0
14,4.829123937912613
15,-12.339669262126556
16,0.8866843764982377
17,-9.317108025618154
18,5.373159009429461
2,1, 1, 1, 0, 3,30.00,45.00,Tuesday
7,-11.25
8,0.0
9,0.0
10,0.0
11,0.0
12,0.0
13,0.0
14,4.779785049517598
15,-12.216338503924894
16,0.886595021377957
17,-9.160543382999663
18,5.318763264893389
2,1, 1, 1, 0, 3,45.00,60.00,Tuesday
7,-11.1
8,0.0
9,0.0
10,0.0
11,0.0
12,0.0
13,0.0
14,4.731090168599574
15,-12.094584438371218
16,0.8948907141933091
17,-9.022456172479167
18,5.2652737101275959
2,1, 1, 1, 0, 4, 0.00,15.00,Tuesday
7,-11.1
8,0.0
9,0.0
10,0.0
11,0.0
12,0.0
13,0.0
14,4.678451492243768
15,-12.066426430884539
16,0.8348470487387658
17,-9.05862343548614
18,5.211569633369132
2,1, 1, 1, 0, 4,15.00,30.00,Tuesday
7,-11.1
8,0.0
9,0.0
10,0.0
11,0.0
12,0.0
13,0.0
14,4.626217748694555
15,-12.039360226264434
16,0.7816802829047447
17,-9.101264801982439
18,5.1572385374139249
2,1, 1, 1, 0, 4,30.00,45.00,Tuesday
7,-11.1
8,0.0
9,0.0
10,0.0
11,0.0
12,0.0
13,0.0
14,4.5737215709488379
15,-12.013816690180466
16,0.7294526536491048
17,-9.143612653679725
18,5.102464647332696
2,1, 1, 1, 0, 4,45.00,60.00,Tuesday
7,-11.1
8,0.0
9,0.0
10,0.0
11,0.0
12,0.0
13,0.0
14,4.521103332552936
15,-11.989663005967037
16,0.6775002436797308
17,-9.184932244769016
18,5.047541313378988
2,1, 1, 1, 0, 5, 0.00,15.00,Tuesday
7,-10.975
8,0.0
9,0.0
10,0.0
11,0.0
12,0.0
13,0.0
14,4.474213845978552
15,-11.867741940192673
16,0.6700055516123484
17,-9.10373320803734
18,4.993832686999669
2,1, 1, 1, 0, 5,15.00,30.00,Tuesday
7,-10.85
8,0.0
9,0.0
10,0.0
11,0.0
12,0.0
13,0.0
14,4.427576965716772
15,-11.745888479593765
16,0.6597234882716521
17,-9.014497054291326
18,4.941864520428648
2,1, 1, 1, 0, 5,30.00,45.00,Tuesday
7,-10.725
8,0.0
9,0.0
10,0.0
11,0.0
12,0.0
13,0.0
14,4.382037577615836
15,-11.624010750868015
16,0.6496463517374878
17,-8.924286956724814
18,4.891374052718912
2,1, 1, 1, 0, 5,45.00,60.00,Tuesday
7,-10.6
8,0.0
9,0.0
10,0.0
11,0.0
12,0.0
13,0.0
14,4.337406403803524
15,-11.502142110867894
16,0.6403816648378324
17,-8.833777669727056
18,4.8419407536563849
2,1, 1, 1, 0, 6, 0.00,15.00,Tuesday
7,-10.6
8,0.0
9,0.0
10,0.0
11,0.0
12,0.0
13,0.0
14,4.285745863410228
15,-11.503153225290495
16,0.5976861721086948
17,-8.836867365452918
18,4.791872122435812
2,1, 1, 1, 0, 6,15.00,30.00,Tuesday
7,-10.6
8,0.0
9,0.0
10,0.0
11,0.0
12,0.0
13,0.0
14,4.234725073372967
15,-11.504109526223273
16,0.5564582876553459
17,-8.846331674680699
18,4.740434481271603
2,1, 1, 1, 0, 6,30.00,45.00,Tuesday
7,-10.6
8,0.0
9,0.0
10,0.0
11,0.0
12,0.0
13,0.0
14,4.183153870175391
15,-11.505108534248832
16,0.5154708453368357
17,-8.856424731994139
18,4.687928303529062
2,1, 1, 1, 0, 6,45.00,60.00,Tuesday
7,-10.6
8,0.0
9,0.0
10,0.0
11,0.0
12,0.0
13,0.0
14,4.131266435017021
15,-11.506105267527098
16,0.47413502241693097
17,-8.866693976758939
18,4.634893306981875
2,1, 1, 1, 0, 7, 0.00,15.00,Tuesday
7,-10.6
8,0.0
9,0.0
10,0.0
11,0.0
12,0.0
13,0.0
14,4.081329389514016
15,-11.482828896919518
16,0.4234096718003002
17,-8.902156702118419
18,4.581967768138472
2,1, 1, 1, 0, 7,15.00,30.00,Tuesday
7,-10.6
8,0.0
9,0.0
10,0.0
11,0.0
12,0.0
13,0.0
14,4.031267434354174
15,-11.460761066888363
16,0.37484860494021179
17,-8.937933574458157
18,4.529492779606893
2,1, 1, 1, 0, 7,30.00,45.00,Tuesday
7,-10.6
8,0.0
9,0.0
10,0.0
11,0.0
12,0.0
13,0.0
14,3.9814822177183055
15,-11.439816228662714
16,0.3268375309954763
17,-8.972861289630146
18,4.477466724884641
2,1, 1, 1, 0, 7,45.00,60.00,Tuesday
7,-10.6
8,0.0
9,0.0
10,0.0
11,0.0
12,0.0
13,0.0
14,3.931988322337939
15,-11.419927507118299
16,0.2793856038160243
17,-9.006753926795512
18,4.425793268607209
2,1, 1, 1, 0, 8, 0.00,15.00,Tuesday
7,-10.45
8,0.0
9,0.0
10,0.0
11,0.0
12,0.0
13,0.0
14,3.882017013926107
15,-11.37079761115548
16,0.2641195910157421
17,-8.953478131689565
18,4.374268911858057
2,1, 1, 1, 0, 8,15.00,30.00,Tuesday
7,-10.3
8,164.70730277996078
9,1.0
10,22.819555959623899
11,1.0
12,22.819555959623899
13,164.70730277996078
14,3.9545186381722519
15,-9.697133810618812
16,0.5706837876537065
17,-8.615550052853792
18,4.341442218943525
2,1, 1, 1, 0, 8,30.00,45.00,Tuesday
7,-10.15
8,808.7145075753374
9,1.0
10,109.75755355442667
11,1.0
12,109.75755355442667
13,808.7145075753374
14,4.361799661863077
15,-3.326627573162644
16,1.8585407441454436
17,-7.480671491258704
18,4.3790729802507049
2,1, 1, 1, 0, 8,45.00,60.00,Tuesday
7,-10.0
8,1470.5605139501664
9,1.0
10,195.8764694434918
11,1.0
12,195.8764694434918
13,1470.5605139501664
14,4.893660983079295
15,3.1668104901753728
16,3.2610639199833146
17,-6.323433918280784
18,4.494056524471255
2,1, 1, 1, 0, 9, 0.00,15.00,Tuesday
7,-9.725
8,2130.1268679617157
9,1.0
10,278.97248314719988
11,1.0
12,278.97248314719988
13,2130.1268679617157
14,5.303793842351579
15,8.33082258438587
16,4.718305346983186
17,-5.278066624116491
18,4.663809681895363
2,1, 1, 1, 0, 9,15.00,30.00,Tuesday
7,-9.45
8,2825.385387072841
9,1.0
10,364.91995730569456
11,1.0
12,364.91995730569456
13,2825.385387072841
14,5.751483841879953
15,13.411323025983814
16,6.182337571381595
17,-4.231963314369921
18,4.878978006937754
2,1, 1, 1, 0, 9,30.00,45.00,Tuesday
7,-9.175
8,3285.3657815806207
9,1.0
10,420.35879993239237
11,1.0
12,420.35879993239237
13,3285.3657815806207
14,6.069729943916091
15,16.1685899998133
16,7.149792968019142
17,-3.5853770105606488
18,5.118831197286311
2,1, 1, 1, 0, 9,45.00,60.00,Tuesday
7,-8.9
8,3762.8630174369429
9,1.0
10,478.00138373643099
11,1.0
12,478.00138373643099
13,3762.8630174369429
14,6.441726486234916
15,19.163414840737027
16,8.112286805968097
17,-2.919404407066736
18,5.372872939685741
2,1, 1, 1, 0,10, 0.00,15.00,Tuesday
7,-8.350000000000002
8,4250.448423053731
9,1.0
10,536.9185644770597
11,1.0
12,536.9185644770597
13,4250.448423053731
14,6.760823868764814
15,20.279939098950384
16,9.096981870543175
17,-2.238890339741147
18,5.641181824427105
2,1, 1, 1, 0,10,15.00,30.00,Tuesday
7,-7.800000000000001
8,4754.8784400001809
9,1.0
10,598.0969199229219
11,1.0
12,598.0969199229219
13,4754.8784400001809
14,7.109070756372506
15,21.53212783644991
16,10.09728716912474
17,-1.5583910854828674
18,5.929448088392312
2,1, 1, 1, 0,10,30.00,45.00,Tuesday
7,-7.25
8,5085.790385716765
9,1.0
10,637.6133352894237
11,1.0
12,637.6133352894237
13,5085.790385716765
14,7.380145169065056
15,21.591076675705584
16,10.818970741073827
17,-1.0856856054758737
18,6.050894327396303
2,1, 1, 1, 0,10,45.00,60.00,Tuesday
7,-6.7
8,5411.8281742364
9,1.0
10,676.6412284283772
11,1.0
12,676.6412284283772
13,5411.8281742364
14,7.630264311726687
15,21.749464786904164
16,11.4922201640793
17,-0.6195281835231299
18,6.289746096961183
2,1, 1, 1, 0,11, 0.00,15.00,Tuesday
7,-6.275
8,5731.93450410702
9,1.0
10,715.0112779846514
11,1.0
12,715.0112779846514
13,5731.93450410702
14,7.9292934037625459
15,23.846280759939977
16,12.195385177498054
17,0.08288334682447385
18,6.474559585266459
2,1, 1, 1, 0,11,15.00,30.00,Tuesday
7,-5.85
8,6044.505928231053
9,1.0
10,752.5077794605232
11,1.0
12,752.5077794605232
13,6044.505928231053
14,8.294029573725933
15,25.783074464890093
16,12.92120476946053
17,0.7727131907965941
18,6.906980203610582
2,1, 1, 1, 0,11,30.00,45.00,Tuesday
7,-5.425
8,5951.610197095371
9,1.0
10,742.5988714321785
11,1.0
12,742.5988714321785
13,5951.610197095371
14,8.57410597533174
15,25.636683718638158
16,13.129074576495782
17,1.0689265510740143
18,7.289598271631634
2,1, 1, 1, 0,11,45.00,60.00,Tuesday
7,-5.0
8,5818.873031211445
9,1.0
10,727.8169025450712
11,1.0
12,727.8169025450712
13,5818.873031211445
14,8.817032013902058
15,25.407644717315948
16,13.25241358744779
17,1.3321146727188307
18,7.614478343142724
2,1, 1, 1, 0,12, 0.00,15.00,Tuesday
7,-4.575
8,5590.605323962885
9,1.0
10,700.3759009170325
11,1.0
12,700.3759009170325
13,5590.605323962885
14,8.98863671145749
15,24.665496058929489
16,13.213898004906583
17,1.5319133856619374
18,7.888347546159868
2,1, 1, 1, 0,12,15.00,30.00,Tuesday
7,-4.15
8,5421.315289253884
9,1.0
10,681.6705029034473
11,1.0
12,681.6705029034473
13,5421.315289253884
14,9.145854719294688
15,24.33463676606713
16,13.23327414131927
17,1.7956947633980463
18,8.125221229410819
2,1, 1, 1, 0,12,30.00,45.00,Tuesday
7,-3.7249999999999998
8,4759.463309286249
9,1.0
10,602.01865277251
11,1.0
12,602.01865277251
13,4759.463309286249
14,9.088356672093186
15,21.307342536657595
16,12.523806104058963
17,1.5726621283647547
18,8.302875201354118
2,1, 1, 1, 0,12,45.00,60.00,Tuesday
7,-3.3
8,3887.1134706147715
9,1.0
10,493.55004396206007
11,1.0
12,493.55004396206007
13,3887.1134706147715
14,8.9003387539665
15,17.12917268254584
16,11.366891069051576
17,1.092518201782184
18,8.395705328762905
2,1, 1, 1, 0,13, 0.00,15.00,Tuesday
7,-3.0249999999999996
8,3209.574868603734
9,1.0
10,412.335026418112
11,1.0
12,412.335026418112
13,3209.574868603734
14,8.770962789111687
15,14.285449690131222
16,10.440764156303374
17,0.7654556101720687
18,8.420859679905652
2,1, 1, 1, 0,13,15.00,30.00,Tuesday
7,-2.75
8,2350.7180690914585
9,1.0
10,305.94037763660148
11,1.0
12,305.94037763660148
13,2350.7180690914585
14,8.464872070327698
15,10.112753752833888
16,9.136945309431951
17,0.2042105211321541
18,8.38875027776101
2,1, 1, 1, 0,13,30.00,45.00,Tuesday
7,-2.475
8,2146.122384804586
9,1.0
10,281.0763483922329
11,1.0
12,281.0763483922329
13,2146.122384804586
14,8.44143736835339
15,9.600885184037744
16,8.838051844308098
17,0.3119271063205815
18,8.339350743490094
2,1, 1, 1, 0,13,45.00,60.00,Tuesday
7,-2.2
8,1945.7887113955822
9,1.0
10,256.7721209415886
11,1.0
12,256.7721209415886
13,1945.7887113955822
14,8.405358157116569
15,8.9940105612403
16,8.61088809680308
17,0.44472203297425497
18,8.297373499336685
2,1, 1, 1, 0,14, 0.00,15.00,Tuesday
7,-1.9250000000000003
8,1589.5114814468812
9,1.0
10,210.73276284570657
11,1.0
12,210.73276284570657
13,1589.5114814468812
14,8.263050573074374
15,7.447126185546925
16,8.038815229508203
17,0.3527582264304101
18,8.26025553788938
2,1, 1, 1, 0,14,15.00,30.00,Tuesday
7,-1.6500000000000002
8,1411.9992818845379
9,1.0
10,189.38488290342594
11,1.0
12,189.38488290342594
13,1411.9992818845379
14,8.225962936799843
15,7.03956649877918
16,7.79817527826242
17,0.4677330000145048
18,8.22776207177922
2,1, 1, 1, 0,14,30.00,45.00,Tuesday
7,-1.375
8,1346.6477146256526
9,1.0
10,179.3940297802914
11,1.0
12,179.3940297802914
13,1346.6477146256526
14,8.219263955477091
15,7.165666578315573
16,7.761901315881914
17,0.6992203441232618
18,8.201029869294775
2,1, 1, 1, 0,14,45.00,60.00,Tuesday
7,-1.1
8,1280.5495415471219
9,1.0
10,169.43349014176136
11,1.0
12,169.43349014176136
13,1280.5495415471219
14,8.208010817446084
15,7.265060035750061
16,7.71953421462149
17,0.9285153904170329
18,8.179321296310448
2,1, 1, 1, 0,15, 0.00,15.00,Tuesday
7,-1.1
8,1347.8587297811799
9,1.0
10,178.15692317953907
11,1.0
12,178.15692317953907
13,1347.8587297811799
14,8.270321890321018
15,8.083195242741543
16,7.858810459419942
17,1.0715969850550665
18,8.166148475185386
2,1, 1, 1, 0,15,15.00,30.00,Tuesday
7,-1.1
8,1266.276259391967
9,1.0
10,166.40516310952945
11,1.0
12,166.40516310952945
13,1266.276259391967
14,8.217992540536735
15,7.7204346288341789
16,7.719273865198318
17,1.0185155737483456
18,8.15606479522877
2,1, 1, 1, 0,15,30.00,45.00,Tuesday
7,-1.1
8,1067.701389865137
9,1.0
10,140.8967369711617
11,1.0
12,140.8967369711617
13,1067.701389865137
14,8.099382919026465
15,6.514075496533776
16,7.338065287069583
17,0.7974853450734258
18,8.137991851053642
2,1, 1, 1, 0,15,45.00,60.00,Tuesday
7,-1.1
8,878.6312280760801
9,1.0
10,116.57355796743004
11,1.0
12,116.57355796743004
13,878.6312280760801
14,7.9801588572997359
15,5.305565182796969
16,6.9623133798436929
17,0.568936529910502
18,8.101679893498078
2,1, 1, 1, 0,16, 0.00,15.00,Tuesday
7,-1.1
8,697.3318727282369
9,1.0
10,93.14939272689483
11,1.0
12,93.14939272689483
13,697.3318727282369
14,7.87587520411082
15,4.25646389758076
16,6.630111662393006
17,0.42252138542369269
18,8.04536327573815
2,1, 1, 1, 0,16,15.00,30.00,Tuesday
7,-1.1
8,432.9048901425401
9,1.0
10,57.94047897402063
11,1.0
12,57.94047897402063
13,432.9048901425401
14,7.678474777964089
15,2.132790179479547
16,6.116308569553382
17,0.12507746030530599
18,7.961196198431021
2,1, 1, 1, 0,16,30.00,45.00,Tuesday
7,-1.1
8,335.64270075152066
9,1.0
10,45.38251793443488
11,1.0
12,45.38251793443488
13,335.64270075152066
14,7.6004038283562249
15,1.5232842181543663
16,5.899643083249657
17,0.07648423514956449
18,7.864728141887524
2,1, 1, 1, 0,16,45.00,60.00,Tuesday
7,-1.1
8,234.3008415590897
9,1.0
10,32.02625108222755
11,1.0
12,32.02625108222755
13,234.3008415590897
14,7.483031106325758
15,0.6609548820173883
16,5.693767576655091
17,0.023749023919265256
18,7.769667262615523
2,1, 1, 1, 0,17, 0.00,15.00,Tuesday
7,-1.1
8,128.5136834333092
9,1.0
10,17.762198626050539
11,1.0
12,17.762198626050539
13,128.5136834333092
14,7.341060194419939
15,-0.5888546161157597
16,5.4314538068271649
17,-0.13766963783064058
18,7.675359583782443
2,1, 1, 1, 0,17,15.00,30.00,Tuesday
7,-1.1
8,0.0
9,0.0
10,0.0
11,0.0
12,0.0
13,0.0
14,7.149187339924957
15,-2.425465784082187
16,5.086255131912594
17,-0.42025280902231545
18,7.569455033636393
2,1, 1, 1, 0,17,30.00,45.00,Tuesday
7,-1.1
8,0.0
9,0.0
10,0.0
11,0.0
12,0.0
13,0.0
14,7.091826179607989
15,-2.5606077948533825
16,5.0096086465235889
17,-0.40150106519161
18,7.466375680753686
2,1, 1, 1, 0,17,45.00,60.00,Tuesday
7,-1.1
8,0.0
9,0.0
10,0.0
11,0.0
12,0.0
13,0.0
14,7.01867064288912
15,-2.750415384461283
16,4.97099487639349
17,-0.3658401723047291
18,7.379674922794433
2,1, 1, 1, 0,18, 0.00,15.00,Tuesday
7,-1.25
8,0.0
9,0.0
10,0.0
11,0.0
12,0.0
13,0.0
14,6.956884085502212
15,-2.8984168538267855
16,4.876505236751655
17,-0.5028226263084434
18,7.309878154196668
2,1, 1, 1, 0,18,15.00,30.00,Tuesday
7,-1.4
8,0.0
9,0.0
10,0.0
11,0.0
12,0.0
13,0.0
14,6.900424824416437
15,-3.050868508865156
16,4.79854231569584
17,-0.6265409076339097
18,7.251660820098121
2,1, 1, 1, 0,18,30.00,45.00,Tuesday
7,-1.5499999999999999
8,0.0
9,0.0
10,0.0
11,0.0
12,0.0
13,0.0
14,6.848059912627898
15,-3.202876783064834
16,4.722677874730266
17,-0.7542631737170495
18,7.199705765025289
2,1, 1, 1, 0,18,45.00,60.00,Tuesday
7,-1.7
8,0.0
9,0.0
10,0.0
11,0.0
12,0.0
13,0.0
14,6.797646405959524
15,-3.3550561802909768
16,4.649699278344883
17,-0.8811857789287387
18,7.150710154435462
2,1, 1, 1, 0,19, 0.00,15.00,Tuesday
7,-1.825
8,0.0
9,0.0
10,0.0
11,0.0
12,0.0
13,0.0
14,6.771834810989148
15,-3.209663995474132
16,4.5592027776499439
17,-1.05632959717542
18,7.106435988995753
2,1, 1, 1, 0,19,15.00,30.00,Tuesday
7,-1.9500000000000002
8,0.0
9,0.0
10,0.0
11,0.0
12,0.0
13,0.0
14,6.744848455154221
15,-3.145388607790217
16,4.485045232072309
17,-1.2171809203259728
18,7.06864503384033
2,1, 1, 1, 0,19,30.00,45.00,Tuesday
7,-2.075
8,0.0
9,0.0
10,0.0
11,0.0
12,0.0
13,0.0
14,6.713443373852442
15,-3.21989208521266
16,4.429918479740991
17,-1.3355006953144653
18,7.036047148627463
2,1, 1, 1, 0,19,45.00,60.00,Tuesday
7,-2.2
8,0.0
9,0.0
10,0.0
11,0.0
12,0.0
13,0.0
14,6.684781478523761
15,-3.199860237380074
16,4.359998977211035
17,-1.4891310688818749
18,7.005586879287738
2,1, 1, 1, 0,20, 0.00,15.00,Tuesday
7,-1.9250000000000003
8,0.0
9,0.0
10,0.0
11,0.0
12,0.0
13,0.0
14,6.67219230569144
15,-2.899248681775981
16,4.409317705324725
17,-1.2960886888795927
18,6.978012405211092
2,1, 1, 1, 0,20,15.00,30.00,Tuesday
7,-1.6500000000000002
8,0.0
9,0.0
10,0.0
11,0.0
12,0.0
13,0.0
14,6.660155309954753
15,-2.601564985329195
16,4.4554734290013588
17,-1.0905244347009103
18,6.953946602139893
2,1, 1, 1, 0,20,30.00,45.00,Tuesday
7,-1.375
8,0.0
9,0.0
10,0.0
11,0.0
12,0.0
13,0.0
14,6.650014375599966
15,-2.305140213981591
16,4.503399206802669
17,-0.8822462893132865
18,6.932959570795069
2,1, 1, 1, 0,20,45.00,60.00,Tuesday
7,-1.1
8,0.0
9,0.0
10,0.0
11,0.0
12,0.0
13,0.0
14,6.642536219570218
15,-2.0099568963061125
16,4.553573604498297
17,-0.6714864786115982
18,6.914385543929636
2,1, 1, 1, 0,21, 0.00,15.00,Tuesday
7,-1.25
8,0.0
9,0.0
10,0.0
11,0.0
12,0.0
13,0.0
14,6.592266138964269
15,-2.2889198686930847
16,4.514944142779086
17,-0.7332464099835079
18,6.89124039040231
2,1, 1, 1, 0,21,15.00,30.00,Tuesday
7,-1.4
8,0.0
9,0.0
10,0.0
11,0.0
12,0.0
13,0.0
14,6.543817429288631
15,-2.504270863419126
16,4.45991520505595
17,-0.8218964548599388
18,6.858731476766868
2,1, 1, 1, 0,21,30.00,45.00,Tuesday
7,-1.5499999999999999
8,0.0
9,0.0
10,0.0
11,0.0
12,0.0
13,0.0
14,6.482079826836864
15,-2.8456742029767567
16,4.415964770946516
17,-0.8743399594129642
18,6.816160190995675
2,1, 1, 1, 0,21,45.00,60.00,Tuesday
7,-1.7
8,0.0
9,0.0
10,0.0
11,0.0
12,0.0
13,0.0
14,6.415108636217118
15,-3.2942227887615407
16,4.374291743308277
17,-0.8976876117590109
18,6.765911592247284
2,1, 1, 1, 0,22, 0.00,15.00,Tuesday
7,-1.5499999999999999
8,0.0
9,0.0
10,0.0
11,0.0
12,0.0
13,0.0
14,6.4159369606137199
15,-2.810666710977834
16,4.33990655417881
17,-0.8987899209512307
18,6.7213541987354878
2,1, 1, 1, 0,22,15.00,30.00,Tuesday
7,-1.4
8,0.0
9,0.0
10,0.0
11,0.0
12,0.0
13,0.0
14,6.406710734501357
15,-2.483282260122273
16,4.33793009777429
17,-0.847398774412909
18,6.689528137598034
2,1, 1, 1, 0,22,30.00,45.00,Tuesday
7,-1.25
8,0.0
9,0.0
10,0.0
11,0.0
12,0.0
13,0.0
14,6.396465967918639
15,-2.264428156454099
16,4.351832114255046
17,-0.7632856491028406
18,6.66823068153976
2,1, 1, 1, 0,22,45.00,60.00,Tuesday
7,-1.1
8,0.0
9,0.0
10,0.0
11,0.0
12,0.0
13,0.0
14,6.390097496375238
15,-1.9840990256138227
16,4.361169819237034
17,-0.6932731025214025
18,6.652237817220165
2,1, 1, 1, 0,23, 0.00,15.00,Tuesday
7,-1.25
8,0.0
9,0.0
10,0.0
11,0.0
12,0.0
13,0.0
14,6.339038261270482
15,-2.2874726551724655
16,4.25825321262397
17,-0.9612246115167409
18,6.630885375694851
2,1, 1, 1, 0,23,15.00,30.00,Tuesday
7,-1.4
8,0.0
9,0.0
10,0.0
11,0.0
12,0.0
13,0.0
14,6.291112000508538
15,-2.5920976617462498
16,4.144631171315268
17,-1.2445339554317343
18,6.5990865343362439
2,1, 1, 1, 0,23,30.00,45.00,Tuesday
7,-1.5499999999999999
8,0.0
9,0.0
10,0.0
11,0.0
12,0.0
13,0.0
14,6.238338290963602
15,-2.897407489786704
16,4.029330981463318
17,-1.529377618729427
18,6.558131849282225
2,1, 1, 1, 0,23,45.00,60.00,Tuesday
7,-1.7
8,0.0
9,0.0
10,0.0
11,0.0
12,0.0
13,0.0
14,6.181614710969684
15,-3.2030574662949324
16,3.9099337408059116
17,-1.8163037028139116
18,6.511106349849717
2,1, 1, 1, 0,24, 0.00,15.00,Tuesday
7,-1.7
8,0.0
9,0.0
10,0.0
11,0.0
12,0.0
13,0.0
14,6.141056418319228
15,-3.25716512608885
16,3.8572703330970627
17,-1.8833358979292712
18,6.463754551824872
2,1, 1, 1, 0,24,15.00,30.00,Tuesday
7,-1.7
8,0.0
9,0.0
10,0.0
11,0.0
12,0.0
13,0.0
14,6.098409975640694
15,-3.31187883780797
16,3.8090107251643987
17,-1.945365760698678
18,6.419088069028994
2,1, 1, 1, 0,24,30.00,45.00,Tuesday
7,-1.7
8,0.0
9,0.0
10,0.0
11,0.0
12,0.0
13,0.0
14,6.056892724771197
15,-3.3664825410745378
16,3.7605736574209347
17,-2.0071105465572716
18,6.377043118595927
2,1, 1, 1, 0,24,45.00,60.00,Tuesday
7,-1.7
8,0.0
9,0.0
10,0.0
11,0.0
12,0.0
13,0.0
14,6.0162225205611918
15,-3.421088897217518
16,3.7130613925152149
17,-2.068452578099709
18,6.336545191948034
End of Data
 Number of Records Written=        1152
