Program Version,EnergyPlus, Version 9.5.0-de239b2e5f, YMD=2023.02.16 21:09
1,5,Environment Title[],Latitude[deg],Longitude[deg],Time Zone[],Elevation[m]
2,8,Day of Simulation[],Month[],Day of Month[],DST Indicator[1=yes 0=no],Hour[],StartMinute[],EndMinute[],DayType
3,5,Cumulative Day of Simulation[],Month[],Day of Month[],DST Indicator[1=yes 0=no],DayType  ! When Daily Report Variables Requested
4,2,Cumulative Days of Simulation[],Month[]  ! When Monthly Report Variables Requested
5,1,Cumulative Days of Simulation[] ! When Run Period Report Variables Requested
6,1,Calendar Year of Simulation[] ! When Annual Report Variables Requested
7,1,Environment,Site Outdoor Air Drybulb Temperature [C] !TimeStep
8,1,ZONE ONE,Zone Windows Total Transmitted Solar Radiation Rate [W] !TimeStep
9,1,ZN001:WALL001,Surface Outside Face Sunlit Fraction [] !TimeStep
10,1,ZN001:WALL001,Surface Outside Face Incident Solar Radiation Rate per Area [W/m2] !TimeStep
11,1,ZN001:WALL001:WIN001,Surface Outside Face Sunlit Fraction [] !TimeStep
12,1,ZN001:WALL001:WIN001,Surface Outside Face Incident Solar Radiation Rate per Area [W/m2] !TimeStep
13,1,ZN001:WALL001:WIN001,Surface Window Transmitted Solar Radiation Rate [W] !TimeStep
14,1,ZN001:WALL001,Surface Inside Face Temperature [C] !TimeStep
15,1,ZN001:WALL001,Surface Outside Face Temperature [C] !TimeStep
16,1,ZN001:WALL001:WIN001,Surface Inside Face Temperature [C] !TimeStep
17,1,ZN001:WALL001:WIN001,Surface Outside Face Temperature [C] !TimeStep
18,1,ZONE ONE,Zone Mean Air Temperature [C] !TimeStep
End of Data Dictionary
1,RUN PERIOD 1,  41.98, -87.92,  -6.00, 201.00
2,1, 1, 1, 0, 1, 0.00,15.00,Tuesday
7,-4.324999999999999
8,0.0
9,0.0
10,0.0
11,0.0
12,0.0
13,0.0
14,8.15182906053092
15,-5.855543493894768
16,5.4486159172766979
17,-4.004726368372076
18,8.666919762563556
2,1, 1, 1, 0, 1,15.00,30.00,Tuesday
7,-6.949999999999999
8,0.0
9,0.0
10,0.0
11,0.0
12,0.0
13,0.0
14,7.965861344929659
15,-8.322567206378615
16,4.847901441827162
17,-6.0921493496882139
18,8.561623738918156
2,1, 1, 1, 0, 1,30.00,45.00,Tuesday
7,-9.575
8,0.0
9,0.0
10,0.0
11,0.0
12,0.0
13,0.0
14,7.759670778649721
15,-10.797517507582642
16,4.2401609664398169
17,-8.185674210693492
18,8.425090493112517
2,1, 1, 1, 0, 1,45.00,60.00,Tuesday
7,-12.2
8,0.0
9,0.0
10,0.0
11,0.0
12,0.0
13,0.0
14,7.537647510425998
15,-13.279109089362846
16,3.6171804869096038
17,-10.286681563219645
18,8.267203221827759
2,1, 1, 1, 0, 2, 0.00,15.00,Tuesday
7,-12.075
8,0.0
9,0.0
10,0.0
11,0.0
12,0.0
13,0.0
14,7.461964001581408
15,-13.079780086387535
16,3.542979874937373
17,-10.1246230454326
18,8.124956421662028
2,1, 1, 1, 0, 2,15.00,30.00,Tuesday
7,-11.95
8,0.0
9,0.0
10,0.0
11,0.0
12,0.0
13,0.0
14,7.373309683432931
15,-12.90285782531051
16,3.5022522214827065
17,-9.981576822175783
18,8.01481728081843
2,1, 1, 1, 0, 2,30.00,45.00,Tuesday
7,-11.825
8,0.0
9,0.0
10,0.0
11,0.0
12,0.0
13,0.0
14,7.301908844631994
15,-12.724792664969679
16,3.467483946894731
17,-9.838070159450752
18,7.9308663583496259
2,1, 1, 1, 0, 2,45.00,60.00,Tuesday
7,-11.7
8,0.0
9,0.0
10,0.0
11,0.0
12,0.0
13,0.0
14,7.241567527100037
15,-12.54681720445359
16,3.445416594033645
17,-9.691935282436362
18,7.861888375517333
2,1, 1, 1, 0, 3, 0.00,15.00,Tuesday
7,-11.549999999999999
8,0.0
9,0.0
10,0.0
11,0.0
12,0.0
13,0.0
14,7.182877580726924
15,-12.41952793701534
16,3.431883587299353
17,-9.54075725059323
18,7.799050185751329
2,1, 1, 1, 0, 3,15.00,30.00,Tuesday
7,-11.399999999999999
8,0.0
9,0.0
10,0.0
11,0.0
12,0.0
13,0.0
14,7.127208773570952
15,-12.293554598273547
16,3.420106223211235
17,-9.389316776078829
18,7.7381553847698669
2,1, 1, 1, 0, 3,30.00,45.00,Tuesday
7,-11.25
8,0.0
9,0.0
10,0.0
11,0.0
12,0.0
13,0.0
14,7.072319357436064
15,-12.16904042643071
16,3.410007462684007
17,-9.237587267506229
18,7.678095049091699
2,1, 1, 1, 0, 3,45.00,60.00,Tuesday
7,-11.1
8,0.0
9,0.0
10,0.0
11,0.0
12,0.0
13,0.0
14,7.017911869481849
15,-12.046039610917453
16,3.4005316574953214
17,-9.085827326884328
18,7.618804682926473
2,1, 1, 1, 0, 4, 0.00,15.00,Tuesday
7,-11.1
8,0.0
9,0.0
10,0.0
11,0.0
12,0.0
13,0.0
14,6.95969673220288
15,-12.019384704867634
16,3.339817751730209
17,-9.13017749657854
18,7.559382853049847
2,1, 1, 1, 0, 4,15.00,30.00,Tuesday
7,-11.1
8,0.0
9,0.0
10,0.0
11,0.0
12,0.0
13,0.0
14,6.901885084131492
15,-11.993752073195895
16,3.282387677057727
17,-9.173146959484996
18,7.499464179170336
2,1, 1, 1, 0, 4,30.00,45.00,Tuesday
7,-11.1
8,0.0
9,0.0
10,0.0
11,0.0
12,0.0
13,0.0
14,6.843875540527354
15,-11.969569923196746
16,3.225336269071647
17,-9.21502322321794
18,7.439188810678446
2,1, 1, 1, 0, 4,45.00,60.00,Tuesday
7,-11.1
8,0.0
9,0.0
10,0.0
11,0.0
12,0.0
13,0.0
14,6.785789499524433
15,-11.946709855416579
16,3.1684931309583819
17,-9.255737538966287
18,7.378806616718673
2,1, 1, 1, 0, 5, 0.00,15.00,Tuesday
7,-10.975
8,0.0
9,0.0
10,0.0
11,0.0
12,0.0
13,0.0
14,6.733301057923058
15,-11.824927833724847
16,3.1494397823449278
17,-9.170874083578838
18,7.319587344238987
2,1, 1, 1, 0, 5,15.00,30.00,Tuesday
7,-10.85
8,0.0
9,0.0
10,0.0
11,0.0
12,0.0
13,0.0
14,6.681052956838718
15,-11.703203073922726
16,3.128074657824527
17,-9.077852725776438
18,7.26202371965474
2,1, 1, 1, 0, 5,30.00,45.00,Tuesday
7,-10.725
8,0.0
9,0.0
10,0.0
11,0.0
12,0.0
13,0.0
14,6.629875325050787
15,-11.581454652409578
16,3.1070179186767747
17,-8.983976107319109
18,7.205866710289889
2,1, 1, 1, 0, 5,45.00,60.00,Tuesday
7,-10.6
8,0.0
9,0.0
10,0.0
11,0.0
12,0.0
13,0.0
14,6.579581771875948
15,-11.459715466533457
16,3.086797601119997
17,-8.889857738859746
18,7.150722094438363
2,1, 1, 1, 0, 6, 0.00,15.00,Tuesday
7,-10.6
8,0.0
9,0.0
10,0.0
11,0.0
12,0.0
13,0.0
14,6.522497723714828
15,-11.460813301221365
16,3.0380693025507528
17,-8.892456313084438
18,7.09497152369415
2,1, 1, 1, 0, 6,15.00,30.00,Tuesday
7,-10.6
8,0.0
9,0.0
10,0.0
11,0.0
12,0.0
13,0.0
14,6.4660586525049619
15,-11.461871660347155
16,2.990460233480178
17,-8.901526773565536
18,7.037920566207738
2,1, 1, 1, 0, 6,30.00,45.00,Tuesday
7,-10.6
8,0.0
9,0.0
10,0.0
11,0.0
12,0.0
13,0.0
14,6.40909486378914
15,-11.462971649916256
16,2.943043385992837
17,-8.91115524885987
18,6.979872327027101
2,1, 1, 1, 0, 6,45.00,60.00,Tuesday
7,-10.6
8,0.0
9,0.0
10,0.0
11,0.0
12,0.0
13,0.0
14,6.351845970268946
15,-11.46406875062231
16,2.8952813363147245
17,-8.920923631966503
18,6.92135155715123
2,1, 1, 1, 0, 7, 0.00,15.00,Tuesday
7,-10.6
8,0.0
9,0.0
10,0.0
11,0.0
12,0.0
13,0.0
14,6.296482063788176
15,-11.441998023895675
16,2.8396950186148617
17,-8.95593938777597
18,6.862996618781684
2,1, 1, 1, 0, 7,15.00,30.00,Tuesday
7,-10.6
8,0.0
9,0.0
10,0.0
11,0.0
12,0.0
13,0.0
14,6.2410330483509999
15,-11.42107209586395
16,2.786168896837239
17,-8.991281790079825
18,6.80513697488921
2,1, 1, 1, 0, 7,30.00,45.00,Tuesday
7,-10.6
8,0.0
9,0.0
10,0.0
11,0.0
12,0.0
13,0.0
14,6.185892713151455
15,-11.401213777243827
16,2.733146552684957
17,-9.025727257538222
18,6.7477550063279649
2,1, 1, 1, 0, 7,45.00,60.00,Tuesday
7,-10.6
8,0.0
9,0.0
10,0.0
11,0.0
12,0.0
13,0.0
14,6.131064730941565
15,-11.38235946014302
16,2.680664302268724
17,-9.059116653312117
18,6.6907432385271419
2,1, 1, 1, 0, 8, 0.00,15.00,Tuesday
7,-10.45
8,0.0
9,0.0
10,0.0
11,0.0
12,0.0
13,0.0
14,6.075837308310651
15,-11.332373221773939
16,2.6553359311046735
17,-9.004148128358736
18,6.633835574176431
2,1, 1, 1, 0, 8,15.00,30.00,Tuesday
7,-10.3
8,198.49303475921466
9,1.0
10,22.819555959623899
11,1.0
12,22.819555959623899
13,198.49303475921466
14,6.148166209962725
15,-9.658366599103891
16,2.9260402928709938
17,-8.688739123879828
18,6.59703183000692
2,1, 1, 1, 0, 8,30.00,45.00,Tuesday
7,-10.15
8,974.6027902410967
9,1.0
10,109.75755355442667
11,1.0
12,109.75755355442667
13,974.6027902410967
14,6.569153962986159
15,-3.282487257990738
16,4.096477758713149
17,-7.642423146075885
18,6.636347665893925
2,1, 1, 1, 0, 8,45.00,60.00,Tuesday
7,-10.0
8,1772.2105473427887
9,1.0
10,195.8764694434918
11,1.0
12,195.8764694434918
13,1772.2105473427887
14,7.100357102611138
15,3.190772749480747
16,5.390435964114658
17,-6.603634512677786
18,6.7597029768808369
2,1, 1, 1, 0, 9, 0.00,15.00,Tuesday
7,-9.725
8,2567.07103636241
9,1.0
10,278.97248314719988
11,1.0
12,278.97248314719988
13,2567.07103636241
14,7.569949803887104
15,8.371789985996785
16,6.722584352750232
17,-5.67146097770069
18,6.942327634068069
2,1, 1, 1, 0, 9,15.00,30.00,Tuesday
7,-9.45
8,3404.945077593323
9,1.0
10,364.91995730569456
11,1.0
12,364.91995730569456
13,3404.945077593323
14,8.044988278370646
15,13.446056023638116
16,8.121794054790485
17,-4.7341143158283789
18,7.172431116478541
2,1, 1, 1, 0, 9,30.00,45.00,Tuesday
7,-9.175
8,3959.279359646866
9,1.0
10,420.35879993239237
11,1.0
12,420.35879993239237
13,3959.279359646866
14,8.3881024543674
15,16.20271267823204
16,9.043547834361562
17,-4.144734760503923
18,7.428766160136507
2,1, 1, 1, 0, 9,45.00,60.00,Tuesday
7,-8.9
8,4534.723640710659
9,1.0
10,478.00138373643099
11,1.0
12,478.00138373643099
13,4534.723640710659
14,8.788637377786188
15,19.196820015742305
16,9.955749308711689
17,-3.5447606195851906
18,7.700686301516046
2,1, 1, 1, 0,10, 0.00,15.00,Tuesday
7,-8.350000000000002
8,5122.325436329882
9,1.0
10,536.9185644770597
11,1.0
12,536.9185644770597
13,5122.325436329882
14,9.139243974074344
15,20.31087723975001
16,10.902077244401767
17,-2.8951695805452575
18,7.988589262697924
2,1, 1, 1, 0,10,15.00,30.00,Tuesday
7,-7.800000000000001
8,5730.227109160092
9,1.0
10,598.0969199229219
11,1.0
12,598.0969199229219
13,5730.227109160092
14,9.521605168927107
15,21.561265846188986
16,11.865244721118018
17,-2.2434666936456439
18,8.123971609107786
2,1, 1, 1, 0,10,30.00,45.00,Tuesday
7,-7.25
8,6129.017662066558
9,1.0
10,637.6133352894237
11,1.0
12,637.6133352894237
13,6129.017662066558
14,9.781957163177239
15,21.617308441421306
16,12.5561700126662
17,-1.7783655393716913
18,8.385947681959959
2,1, 1, 1, 0,10,45.00,60.00,Tuesday
7,-6.7
8,6521.934241945964
9,1.0
10,676.6412284283772
11,1.0
12,676.6412284283772
13,6521.934241945964
14,10.034845062812888
15,21.77438306345011
16,13.188113121477216
17,-1.31852595297471
18,8.579573974798958
2,1, 1, 1, 0,11, 0.00,15.00,Tuesday
7,-6.275
8,6907.702667445452
9,1.0
10,715.0112779846514
11,1.0
12,715.0112779846514
13,6907.702667445452
14,10.438044486650254
15,23.873922792532939
16,13.887386943700563
17,-0.6416562087099464
18,9.029326664621025
2,1, 1, 1, 0,11,15.00,30.00,Tuesday
7,-5.85
8,7284.390582955339
9,1.0
10,752.5077794605232
11,1.0
12,752.5077794605232
13,7284.390582955339
14,10.892783653098486
15,25.81108759256717
16,14.638204595003117
17,0.024691120079978647
18,9.45135586607755
2,1, 1, 1, 0,11,30.00,45.00,Tuesday
7,-5.425
8,7172.439532346116
9,1.0
10,742.5988714321785
11,1.0
12,742.5988714321785
13,7172.439532346116
14,11.17129176457912
15,25.663029903891134
16,14.884442489688866
17,0.338318914150193
18,9.841395672402508
2,1, 1, 1, 0,11,45.00,60.00,Tuesday
7,-5.0
8,7012.474537249442
9,1.0
10,727.8169025450712
11,1.0
12,727.8169025450712
13,7012.474537249442
14,11.435386258540368
15,25.434778988293698
16,15.032686815193643
17,0.6219121420797364
18,10.185009562540982
2,1, 1, 1, 0,12, 0.00,15.00,Tuesday
7,-4.575
8,6737.383213522377
9,1.0
10,700.3759009170325
11,1.0
12,700.3759009170325
13,6737.383213522377
14,11.624250360789068
15,24.692825043482818
16,15.034514713119393
17,0.8558469977067489
18,10.480206697496716
2,1, 1, 1, 0,12,15.00,30.00,Tuesday
7,-4.15
8,6533.367409871273
9,1.0
10,681.6705029034473
11,1.0
12,681.6705029034473
13,6533.367409871273
14,11.800117576964789
15,24.36221327430714
16,15.08448083529737
17,1.149213531000612
18,10.738512077468771
2,1, 1, 1, 0,12,30.00,45.00,Tuesday
7,-3.7249999999999998
8,5735.752453838288
9,1.0
10,602.01865277251
11,1.0
12,602.01865277251
13,5735.752453838288
14,11.746901998999937
15,21.335025263049098
16,14.474581377390792
17,1.014759196926832
18,10.93523912994005
2,1, 1, 1, 0,12,45.00,60.00,Tuesday
7,-3.3
8,4684.461078610567
9,1.0
10,493.55004396206007
11,1.0
12,493.55004396206007
13,4684.461078610567
14,11.550710165106502
15,17.157126544650514
16,13.428520445741924
17,0.6480595142144239
18,11.04123386874931
2,1, 1, 1, 0,13, 0.00,15.00,Tuesday
7,-3.0249999999999996
8,3867.9417682351988
9,1.0
10,412.335026418112
11,1.0
12,412.335026418112
13,3867.9417682351988
14,11.416661373650474
15,14.314006260497072
16,12.580568357860784
17,0.41089400095694375
18,11.074425978146378
2,1, 1, 1, 0,13,15.00,30.00,Tuesday
7,-2.75
8,2832.9112038253649
9,1.0
10,305.94037763660148
11,1.0
12,305.94037763660148
13,2832.9112038253649
14,11.089722666355835
15,10.141553731809795
16,11.371709633472506
17,-0.036594731634295388
18,11.045646513924398
2,1, 1, 1, 0,13,30.00,45.00,Tuesday
7,-2.475
8,2586.3476478244808
9,1.0
10,281.0763483922329
11,1.0
12,281.0763483922329
13,2586.3476478244808
14,11.06209604808505
15,9.630116393106214
16,11.060621631393474
17,0.102697884889551
18,10.997684178974009
2,1, 1, 1, 0,13,45.00,60.00,Tuesday
7,-2.2
8,2344.9203514735729
9,1.0
10,256.7721209415886
11,1.0
12,256.7721209415886
13,2344.9203514735729
14,11.023422389331899
15,9.023944807122508
16,10.840816912294827
17,0.26817818507748827
18,10.957214763280203
2,1, 1, 1, 0,14, 0.00,15.00,Tuesday
7,-1.9250000000000003
8,1915.5614378460905
9,1.0
10,210.73276284570657
11,1.0
12,210.73276284570657
13,1915.5614378460905
14,10.86558350744764
15,7.4773735891319419
16,10.331256847909345
17,0.23411921797116976
18,10.919985500095438
2,1, 1, 1, 0,14,15.00,30.00,Tuesday
7,-1.6500000000000002
8,1701.636890462901
9,1.0
10,189.38488290342594
11,1.0
12,189.38488290342594
13,1701.636890462901
14,10.826835043883614
15,7.075157547169671
16,10.101979330070435
17,0.380228589712317
18,10.885716703601898
2,1, 1, 1, 0,14,30.00,45.00,Tuesday
7,-1.375
8,1622.8800248440066
9,1.0
10,179.3940297802914
11,1.0
12,179.3940297802914
13,1622.8800248440066
14,10.813027684643592
15,7.199440595041477
16,10.055867780851145
17,0.6252874570280369
18,10.855969513229767
2,1, 1, 1, 0,14,45.00,60.00,Tuesday
7,-1.1
8,1543.2234052226525
9,1.0
10,169.43349014176136
11,1.0
12,169.43349014176136
13,1543.2234052226525
14,10.795296838631959
15,7.300035225573166
16,10.00244870380493
17,0.8689883347299201
18,10.830245663330365
2,1, 1, 1, 0,15, 0.00,15.00,Tuesday
7,-1.1
8,1624.3394505603424
9,1.0
10,178.15692317953907
11,1.0
12,178.15692317953907
13,1624.3394505603424
14,10.85983067588739
15,8.11931905487009
16,10.118949929525798
17,1.0001162651853406
18,10.812860026490104
2,1, 1, 1, 0,15,15.00,30.00,Tuesday
7,-1.1
8,1526.0223033702039
9,1.0
10,166.40516310952945
11,1.0
12,166.40516310952945
13,1526.0223033702039
14,10.804464771956173
15,7.757718191584747
16,9.994900594503918
17,0.9593347625134356
18,10.798120029525608
2,1, 1, 1, 0,15,30.00,45.00,Tuesday
7,-1.1
8,1286.7145871122662
9,1.0
10,140.8967369711617
11,1.0
12,140.8967369711617
13,1286.7145871122662
14,10.666277782455829
15,6.547528230381938
16,9.648413428180618
17,0.7708534512096321
18,10.775849710792988
2,1, 1, 1, 0,15,45.00,60.00,Tuesday
7,-1.1
8,1058.8612402206416
9,1.0
10,116.57355796743004
11,1.0
12,116.57355796743004
13,1058.8612402206416
14,10.557701159681344
15,5.348883302367637
16,9.298938085887813
17,0.573778415458321
18,10.73156757386762
2,1, 1, 1, 0,16, 0.00,15.00,Tuesday
7,-1.1
8,840.3726933531048
9,1.0
10,93.14939272689483
11,1.0
12,93.14939272689483
13,840.3726933531048
14,10.441213368964734
15,4.300057296423277
16,8.990582223001866
17,0.4630982668750221
18,10.66529574980049
2,1, 1, 1, 0,16,15.00,30.00,Tuesday
7,-1.1
8,521.7048907738913
9,1.0
10,57.94047897402063
11,1.0
12,57.94047897402063
13,521.7048907738913
14,10.230605380628687
15,2.180491151605992
16,8.512130590993138
17,0.2171719223177888
18,10.572886441054957
2,1, 1, 1, 0,16,30.00,45.00,Tuesday
7,-1.1
8,404.4917082756416
9,1.0
10,45.38251793443488
11,1.0
12,45.38251793443488
13,404.4917082756416
14,10.144677592075034
15,1.575162296167149
16,8.295388481409873
17,0.19582387306797956
18,10.470104567294737
2,1, 1, 1, 0,16,45.00,60.00,Tuesday
7,-1.1
8,282.362010079345
9,1.0
10,32.02625108222755
11,1.0
12,32.02625108222755
13,282.362010079345
14,10.019122263739926
15,0.718058894848263
16,8.09700872753632
17,0.1739959249219396
18,10.369871325263219
2,1, 1, 1, 0,17, 0.00,15.00,Tuesday
7,-1.1
8,154.8751670521773
9,1.0
10,17.762198626050539
11,1.0
12,17.762198626050539
13,154.8751670521773
14,9.869807551958209
15,-0.5248046004082305
16,7.847195530772979
17,0.0433150130697868
18,10.270284605083795
2,1, 1, 1, 0,17,15.00,30.00,Tuesday
7,-1.1
8,0.0
9,0.0
10,0.0
11,0.0
12,0.0
13,0.0
14,9.670147798340674
15,-2.3580910772685139
16,7.518966643866861
17,-0.21392544373281908
18,10.157876156970897
2,1, 1, 1, 0,17,30.00,45.00,Tuesday
7,-1.1
8,0.0
9,0.0
10,0.0
11,0.0
12,0.0
13,0.0
14,9.60677993530165
15,-2.490008128332465
16,7.431798659999458
17,-0.17776978939332367
18,10.04819853223896
2,1, 1, 1, 0,17,45.00,60.00,Tuesday
7,-1.1
8,0.0
9,0.0
10,0.0
11,0.0
12,0.0
13,0.0
14,9.52712032253945
15,-2.6740602625471956
16,7.386270266046267
17,-0.12751900701596242
18,9.955637967434964
2,1, 1, 1, 0,18, 0.00,15.00,Tuesday
7,-1.25
8,0.0
9,0.0
10,0.0
11,0.0
12,0.0
13,0.0
14,9.458991641175212
15,-2.8228076445386369
16,7.289633962959442
17,-0.27124966089752436
18,9.880512530997992
2,1, 1, 1, 0,18,15.00,30.00,Tuesday
7,-1.4
8,0.0
9,0.0
10,0.0
11,0.0
12,0.0
13,0.0
14,9.396566465772154
15,-2.97528752389797
16,7.209634094804301
17,-0.39990447681225307
18,9.817021620459212
2,1, 1, 1, 0,18,30.00,45.00,Tuesday
7,-1.5499999999999999
8,0.0
9,0.0
10,0.0
11,0.0
12,0.0
13,0.0
14,9.338331674724234
15,-3.1274133654161426
16,7.132164811366579
17,-0.5323802396386554
18,9.759570719392741
2,1, 1, 1, 0,18,45.00,60.00,Tuesday
7,-1.7
8,0.0
9,0.0
10,0.0
11,0.0
12,0.0
13,0.0
14,9.28201390396437
15,-3.279707194324173
16,7.057638260652311
17,-0.6641028613091748
18,9.704816170077445
2,1, 1, 1, 0,19, 0.00,15.00,Tuesday
7,-1.825
8,0.0
9,0.0
10,0.0
11,0.0
12,0.0
13,0.0
14,9.2491629204489
15,-3.143130266638738
16,6.964254551446345
17,-0.8599568212381428
18,9.654590463290745
2,1, 1, 1, 0,19,15.00,30.00,Tuesday
7,-1.9500000000000002
8,0.0
9,0.0
10,0.0
11,0.0
12,0.0
13,0.0
14,9.214969225421898
15,-3.086567413768432
16,6.887224995032113
17,-1.0398759594100966
18,9.610674563607159
2,1, 1, 1, 0,19,30.00,45.00,Tuesday
7,-2.075
8,0.0
9,0.0
10,0.0
11,0.0
12,0.0
13,0.0
14,9.176803894189949
15,-3.1631612969509157
16,6.82980435303557
17,-1.1660778083318633
18,9.571762491716392
2,1, 1, 1, 0,19,45.00,60.00,Tuesday
7,-2.2
8,0.0
9,0.0
10,0.0
11,0.0
12,0.0
13,0.0
14,9.140285582371547
15,-3.1498715902475209
16,6.757188535658543
17,-1.3362001693052435
18,9.53467778763108
2,1, 1, 1, 0,20, 0.00,15.00,Tuesday
7,-1.9250000000000003
8,0.0
9,0.0
10,0.0
11,0.0
12,0.0
13,0.0
14,9.12136966978113
15,-2.8508759024595715
16,6.788415867160666
17,-1.1384907712550217
18,9.50029591179871
2,1, 1, 1, 0,20,15.00,30.00,Tuesday
7,-1.6500000000000002
8,0.0
9,0.0
10,0.0
11,0.0
12,0.0
13,0.0
14,9.10180737722425
15,-2.5547390440587258
16,6.817687584933196
17,-0.9290646890425478
18,9.469295092953943
2,1, 1, 1, 0,20,30.00,45.00,Tuesday
7,-1.375
8,0.0
9,0.0
10,0.0
11,0.0
12,0.0
13,0.0
14,9.08420834908379
15,-2.2597366005046717
16,6.848323399121455
17,-0.7172446640100247
18,9.44122124193715
2,1, 1, 1, 0,20,45.00,60.00,Tuesday
7,-1.1
8,0.0
9,0.0
10,0.0
11,0.0
12,0.0
13,0.0
14,9.068228420640134
15,-1.9659098448738728
16,6.881103939027298
17,-0.5030853732343985
18,9.415301382302987
2,1, 1, 1, 0,21, 0.00,15.00,Tuesday
7,-1.25
8,0.0
9,0.0
10,0.0
11,0.0
12,0.0
13,0.0
14,9.013470852185542
15,-2.2379275236813198
16,6.843552157720978
17,-0.5543308579420909
18,9.384820255465593
2,1, 1, 1, 0,21,15.00,30.00,Tuesday
7,-1.4
8,0.0
9,0.0
10,0.0
11,0.0
12,0.0
13,0.0
14,8.959477303184949
15,-2.4496269090934659
16,6.787594868066776
17,-0.638531039007944
18,9.34521621466859
2,1, 1, 1, 0,21,30.00,45.00,Tuesday
7,-1.5499999999999999
8,0.0
9,0.0
10,0.0
11,0.0
12,0.0
13,0.0
14,8.892784826923763
15,-2.7817883684864479
16,6.743056386870194
17,-0.6757311126755212
18,9.295911815437658
2,1, 1, 1, 0,21,45.00,60.00,Tuesday
7,-1.7
8,0.0
9,0.0
10,0.0
11,0.0
12,0.0
13,0.0
14,8.820841907070707
15,-3.219634170127436
16,6.699257018085291
17,-0.6804016244749391
18,9.239304023926995
2,1, 1, 1, 0,22, 0.00,15.00,Tuesday
7,-1.5499999999999999
8,0.0
9,0.0
10,0.0
11,0.0
12,0.0
13,0.0
14,8.812720207994792
15,-2.7486030736396764
16,6.649615313422771
17,-0.6908965968510756
18,9.188433010184675
2,1, 1, 1, 0,22,15.00,30.00,Tuesday
7,-1.4
8,0.0
9,0.0
10,0.0
11,0.0
12,0.0
13,0.0
14,8.795302026061793
15,-2.4296225195099385
16,6.6393349740087619
17,-0.6676100310725133
18,9.150290624461894
2,1, 1, 1, 0,22,30.00,45.00,Tuesday
7,-1.25
8,0.0
9,0.0
10,0.0
11,0.0
12,0.0
13,0.0
14,8.777437023736088
15,-2.2145392538267059
16,6.637937424914298
17,-0.582980903105863
18,9.122431781654799
2,1, 1, 1, 0,22,45.00,60.00,Tuesday
7,-1.1
8,0.0
9,0.0
10,0.0
11,0.0
12,0.0
13,0.0
14,8.763436431193324
15,-1.9409798249687369
16,6.633058799541345
17,-0.5256689124240666
18,9.0995348979356
2,1, 1, 1, 0,23, 0.00,15.00,Tuesday
7,-1.25
8,0.0
9,0.0
10,0.0
11,0.0
12,0.0
13,0.0
14,8.70782073107398
15,-2.244208391859959
16,6.538319165311464
17,-0.8039910347401929
18,9.071194156462445
2,1, 1, 1, 0,23,15.00,30.00,Tuesday
7,-1.4
8,0.0
9,0.0
10,0.0
11,0.0
12,0.0
13,0.0
14,8.654370502281717
15,-2.548918761213197
16,6.431682487786986
17,-1.095122543486923
18,9.03259670869684
2,1, 1, 1, 0,23,30.00,45.00,Tuesday
7,-1.5499999999999999
8,0.0
9,0.0
10,0.0
11,0.0
12,0.0
13,0.0
14,8.596053810867883
15,-2.8542771943458606
16,6.323008866962482
17,-1.387703186319868
18,8.98517999505685
2,1, 1, 1, 0,23,45.00,60.00,Tuesday
7,-1.7
8,0.0
9,0.0
10,0.0
11,0.0
12,0.0
13,0.0
14,8.533839521007442
15,-3.1599801328623364
16,6.210163304800119
17,-1.682184734839609
18,8.932048858370378
2,1, 1, 1, 0,24, 0.00,15.00,Tuesday
7,-1.7
8,0.0
9,0.0
10,0.0
11,0.0
12,0.0
13,0.0
14,8.487161592126693
15,-3.214258044855385
16,6.152965139216008
17,-1.750384832544853
18,8.878804364361415
2,1, 1, 1, 0,24,15.00,30.00,Tuesday
7,-1.7
8,0.0
9,0.0
10,0.0
11,0.0
12,0.0
13,0.0
14,8.43850086641848
15,-3.2690726782720405
16,6.100445030688206
17,-1.8144907105134963
18,8.828304276853219
2,1, 1, 1, 0,24,30.00,45.00,Tuesday
7,-1.7
8,0.0
9,0.0
10,0.0
11,0.0
12,0.0
13,0.0
14,8.391041627007473
15,-3.323779990775375
16,6.047884045237254
17,-1.8781705132387288
18,8.780385061310108
2,1, 1, 1, 0,24,45.00,60.00,Tuesday
7,-1.7
8,0.0
9,0.0
10,0.0
11,0.0
12,0.0
13,0.0
14,8.344448263699452
15,-3.378491581312744
16,5.99631772958935
17,-1.9414364238914459
18,8.73394295752319
End of Data
 Number of Records Written=        1152
