Program Version,EnergyPlus, Version 9.5.0-de239b2e5f, YMD=2023.02.16 21:08
1,5,Environment Title[],Latitude[deg],Longitude[deg],Time Zone[],Elevation[m]
2,8,Day of Simulation[],Month[],Day of Month[],DST Indicator[1=yes 0=no],Hour[],StartMinute[],EndMinute[],DayType
3,5,Cumulative Day of Simulation[],Month[],Day of Month[],DST Indicator[1=yes 0=no],DayType  ! When Daily Report Variables Requested
4,2,Cumulative Days of Simulation[],Month[]  ! When Monthly Report Variables Requested
5,1,Cumulative Days of Simulation[] ! When Run Period Report Variables Requested
6,1,Calendar Year of Simulation[] ! When Annual Report Variables Requested
7,1,Environment,Site Outdoor Air Drybulb Temperature [C] !TimeStep
8,1,ZONE ONE,Zone Windows Total Transmitted Solar Radiation Rate [W] !TimeStep
9,1,ZN001:WALL001,Surface Outside Face Sunlit Fraction [] !TimeStep
10,1,ZN001:WALL001,Surface Outside Face Incident Solar Radiation Rate per Area [W/m2] !TimeStep
11,1,ZN001:WALL001:WIN001,Surface Outside Face Sunlit Fraction [] !TimeStep
12,1,ZN001:WALL001:WIN001,Surface Outside Face Incident Solar Radiation Rate per Area [W/m2] !TimeStep
13,1,ZN001:WALL001:WIN001,Surface Window Transmitted Solar Radiation Rate [W] !TimeStep
14,1,ZN001:WALL001,Surface Inside Face Temperature [C] !TimeStep
15,1,ZN001:WALL001,Surface Outside Face Temperature [C] !TimeStep
16,1,ZN001:WALL001:WIN001,Surface Inside Face Temperature [C] !TimeStep
17,1,ZN001:WALL001:WIN001,Surface Outside Face Temperature [C] !TimeStep
18,1,ZONE ONE,Zone Mean Air Temperature [C] !TimeStep
End of Data Dictionary
1,RUN PERIOD 1,  41.98, -87.92,  -6.00, 201.00
2,1, 1, 1, 0, 1, 0.00,15.00,Tuesday
7,-4.324999999999999
8,0.0
9,0.0
10,0.0
11,0.0
12,0.0
13,0.0
14,1.6795988224761025
15,-5.973475230745997
16,-0.7225670877320454
17,-4.483938307681115
18,2.0197609354863435
2,1, 1, 1, 0, 1,15.00,30.00,Tuesday
7,-6.949999999999999
8,0.0
9,0.0
10,0.0
11,0.0
12,0.0
13,0.0
14,1.4992762288629607
15,-8.441441666850676
16,-1.5686061137528214
17,-6.399626039419161
18,1.926016162382876
2,1, 1, 1, 0, 1,30.00,45.00,Tuesday
7,-9.575
8,0.0
9,0.0
10,0.0
11,0.0
12,0.0
13,0.0
14,1.29446349911148
15,-10.918016519075329
16,-2.416839144672622
17,-8.321438954760197
18,1.7955924657564469
2,1, 1, 1, 0, 1,45.00,60.00,Tuesday
7,-12.2
8,0.0
9,0.0
10,0.0
11,0.0
12,0.0
13,0.0
14,1.0734025766246307
15,-13.401061248234031
16,-3.2789135376028755
17,-10.252387065352196
18,1.6390953629344856
2,1, 1, 1, 0, 2, 0.00,15.00,Tuesday
7,-12.075
8,0.0
9,0.0
10,0.0
11,0.0
12,0.0
13,0.0
14,1.0114901677872466
15,-13.202859755914322
16,-3.3060932448290716
17,-10.123332367953254
18,1.4989244170627932
2,1, 1, 1, 0, 2,15.00,30.00,Tuesday
7,-11.95
8,0.0
9,0.0
10,0.0
11,0.0
12,0.0
13,0.0
14,0.9343361324057958
15,-13.025690941377077
16,-3.305843368329761
17,-10.008226860524417
18,1.3944898239730026
2,1, 1, 1, 0, 2,30.00,45.00,Tuesday
7,-11.825
8,0.0
9,0.0
10,0.0
11,0.0
12,0.0
13,0.0
14,0.8762086730288803
15,-12.847203656744734
16,-3.3033012972440476
17,-9.883557889700512
18,1.320265248309019
2,1, 1, 1, 0, 2,45.00,60.00,Tuesday
7,-11.7
8,0.0
9,0.0
10,0.0
11,0.0
12,0.0
13,0.0
14,0.8306299783144194
15,-12.668784395373704
16,-3.2887824466611166
17,-9.753340240282
18,1.2641454088411779
2,1, 1, 1, 0, 3, 0.00,15.00,Tuesday
7,-11.549999999999999
8,0.0
9,0.0
10,0.0
11,0.0
12,0.0
13,0.0
14,0.7872961284366544
15,-12.544464278814184
16,-3.2652441113825718
17,-9.61810937435041
18,1.2161934037287908
2,1, 1, 1, 0, 3,15.00,30.00,Tuesday
7,-11.399999999999999
8,0.0
9,0.0
10,0.0
11,0.0
12,0.0
13,0.0
14,0.7477185874286583
15,-12.421590088644818
16,-3.23955035007657
17,-9.482613817813786
18,1.171340032119864
2,1, 1, 1, 0, 3,30.00,45.00,Tuesday
7,-11.25
8,0.0
9,0.0
10,0.0
11,0.0
12,0.0
13,0.0
14,0.7093310416412598
15,-12.300333527536897
16,-3.212060238631693
17,-9.346947915337183
18,1.1279340510879199
2,1, 1, 1, 0, 3,45.00,60.00,Tuesday
7,-11.1
8,0.0
9,0.0
10,0.0
11,0.0
12,0.0
13,0.0
14,0.6716250262193924
15,-12.180753591593279
16,-3.1839107710800365
17,-9.211566946976518
18,1.085631156536047
2,1, 1, 1, 0, 4, 0.00,15.00,Tuesday
7,-11.1
8,0.0
9,0.0
10,0.0
11,0.0
12,0.0
13,0.0
14,0.6299966465045376
15,-12.14992360722872
16,-3.2350594562905146
17,-9.242873252214338
18,1.0430920985643182
2,1, 1, 1, 0, 4,15.00,30.00,Tuesday
7,-11.1
8,0.0
9,0.0
10,0.0
11,0.0
12,0.0
13,0.0
14,0.5887148859186728
15,-12.120299379371188
16,-3.278580215542547
17,-9.280734124244248
18,0.999824385680706
2,1, 1, 1, 0, 4,30.00,45.00,Tuesday
7,-11.1
8,0.0
9,0.0
10,0.0
11,0.0
12,0.0
13,0.0
14,0.5471174749327058
15,-12.092324709038922
16,-3.3208688721411478
17,-9.31872375801288
18,0.9560136377881653
2,1, 1, 1, 0, 4,45.00,60.00,Tuesday
7,-11.1
8,0.0
9,0.0
10,0.0
11,0.0
12,0.0
13,0.0
14,0.5053355650327911
15,-12.065860714222069
16,-3.3627986454630447
17,-9.355923959690927
18,0.9119780948902382
2,1, 1, 1, 0, 5, 0.00,15.00,Tuesday
7,-10.975
8,0.0
9,0.0
10,0.0
11,0.0
12,0.0
13,0.0
14,0.4695151075995568
15,-11.943666516392789
16,-3.350031965191647
17,-9.27974070002847
18,0.8691960165916196
2,1, 1, 1, 0, 5,15.00,30.00,Tuesday
7,-10.85
8,0.0
9,0.0
10,0.0
11,0.0
12,0.0
13,0.0
14,0.4339609622532767
15,-11.821563422348719
16,-3.3401678774855556
17,-9.196208092130178
18,0.8282609017621484
2,1, 1, 1, 0, 5,30.00,45.00,Tuesday
7,-10.725
8,0.0
9,0.0
10,0.0
11,0.0
12,0.0
13,0.0
14,0.39952025463890647
15,-11.699435472311663
16,-3.3302685419129149
17,-9.111561446224983
18,0.7889132225543133
2,1, 1, 1, 0, 5,45.00,60.00,Tuesday
7,-10.6
8,0.0
9,0.0
10,0.0
11,0.0
12,0.0
13,0.0
14,0.36601603477846259
15,-11.577316206864012
16,-3.319632284849945
17,-9.02651523088116
18,0.7507021684235856
2,1, 1, 1, 0, 6, 0.00,15.00,Tuesday
7,-10.6
8,0.0
9,0.0
10,0.0
11,0.0
12,0.0
13,0.0
14,0.32506170208560467
15,-11.578160260779463
16,-3.3470983973134027
17,-9.032055068208934
18,0.7119255312005526
2,1, 1, 1, 0, 6,15.00,30.00,Tuesday
7,-10.6
8,0.0
9,0.0
10,0.0
11,0.0
12,0.0
13,0.0
14,0.2847170320031875
15,-11.578912626442598
16,-3.3766570681773375
17,-9.041030621808546
18,0.6717083023105979
2,1, 1, 1, 0, 6,30.00,45.00,Tuesday
7,-10.6
8,0.0
9,0.0
10,0.0
11,0.0
12,0.0
13,0.0
14,0.24380498491112682
15,-11.579710870999492
16,-3.4062790697988705
17,-9.050759110383865
18,0.6302618428844445
2,1, 1, 1, 0, 6,45.00,60.00,Tuesday
7,-10.6
8,0.0
9,0.0
10,0.0
11,0.0
12,0.0
13,0.0
14,0.20250910672806927
15,-11.580509444752126
16,-3.4361765922315046
17,-9.060858462709348
18,0.5881267735982856
2,1, 1, 1, 0, 7, 0.00,15.00,Tuesday
7,-10.6
8,0.0
9,0.0
10,0.0
11,0.0
12,0.0
13,0.0
14,0.16324203999671059
15,-11.555082782571877
16,-3.4805924215526717
17,-9.091127705320105
18,0.5458685044926165
2,1, 1, 1, 0, 7,15.00,30.00,Tuesday
7,-10.6
8,0.0
9,0.0
10,0.0
11,0.0
12,0.0
13,0.0
14,0.1237718110046655
15,-11.530981920430565
16,-3.5193512623010294
17,-9.122456228141687
18,0.5039360824951791
2,1, 1, 1, 0, 7,30.00,45.00,Tuesday
7,-10.6
8,0.0
9,0.0
10,0.0
11,0.0
12,0.0
13,0.0
14,0.08449933199570148
15,-11.50810046793192
16,-3.5573035484408139
17,-9.15342555363884
18,0.462423877419082
2,1, 1, 1, 0, 7,45.00,60.00,Tuesday
7,-10.6
8,0.0
9,0.0
10,0.0
11,0.0
12,0.0
13,0.0
14,0.04548910025840401
15,-11.48636651146014
16,-3.594666186782206
17,-9.183552164890103
18,0.42126950969918799
2,1, 1, 1, 0, 8, 0.00,15.00,Tuesday
7,-10.45
8,0.0
9,0.0
10,0.0
11,0.0
12,0.0
13,0.0
14,0.005808759967361186
15,-11.438723551599163
16,-3.593954767410878
17,-9.135799664448883
18,0.380323419119904
2,1, 1, 1, 0, 8,15.00,30.00,Tuesday
7,-10.3
8,93.05655358355645
9,1.0
10,22.819555959623899
11,1.0
12,22.819555959623899
13,93.05655358355645
14,0.07687994413171248
15,-9.765743445181398
16,-3.1784224611650417
17,-8.718952242578553
18,0.3555645146728746
2,1, 1, 1, 0, 8,30.00,45.00,Tuesday
7,-10.15
8,457.6558068976325
9,1.0
10,109.75755355442667
11,1.0
12,109.75755355442667
13,457.6558068976325
14,0.4503292280709221
15,-3.4058758564026108
16,-1.5294824425466232
17,-7.264826628260209
18,0.39070209038000067
2,1, 1, 1, 0, 8,45.00,60.00,Tuesday
7,-10.0
8,834.7083798112577
9,1.0
10,195.8764694434918
11,1.0
12,195.8764694434918
13,834.7083798112577
14,0.9122209536345962
15,3.0827013849352116
16,0.21960760369279343
17,-5.801810775257877
18,0.4914157685177935
2,1, 1, 1, 0, 9, 0.00,15.00,Tuesday
7,-9.725
8,1213.0424691673657
9,1.0
10,278.97248314719988
11,1.0
12,278.97248314719988
13,1213.0424691673657
14,1.270900646739928
15,8.266841401211427
16,1.8994121218311194
17,-4.511783449450547
18,0.6387231570781913
2,1, 1, 1, 0, 9,15.00,30.00,Tuesday
7,-9.45
8,1614.6596458019777
9,1.0
10,364.91995730569456
11,1.0
12,364.91995730569456
13,1614.6596458019777
14,1.655566065962584
15,13.347931728883533
16,3.5055158034642774
17,-3.2585129640330026
18,0.8257482221334646
2,1, 1, 1, 0, 9,30.00,45.00,Tuesday
7,-9.175
8,1884.2599245450097
9,1.0
10,420.35879993239237
11,1.0
12,420.35879993239237
13,1884.2599245450097
14,1.9221910733167023
15,16.107791237283697
16,4.533770864274004
17,-2.488578177818681
18,1.0334093147542185
2,1, 1, 1, 0, 9,45.00,60.00,Tuesday
7,-8.9
8,2165.580052602723
9,1.0
10,478.00138373643099
11,1.0
12,478.00138373643099
13,2165.580052602723
14,2.235069393754329
15,19.10356355434345
16,5.574208129412455
17,-1.7009262235895336
18,1.252650725163462
2,1, 1, 1, 0,10, 0.00,15.00,Tuesday
7,-8.350000000000002
8,2454.3103898650085
9,1.0
10,536.9185644770597
11,1.0
12,536.9185644770597
13,2454.3103898650085
14,2.4892024490816637
15,20.224385073543073
16,6.610300844022163
17,-0.958642051784409
18,1.484869860096445
2,1, 1, 1, 0,10,15.00,30.00,Tuesday
7,-7.800000000000001
8,2754.195489731118
9,1.0
10,598.0969199229219
11,1.0
12,598.0969199229219
13,2754.195489731118
14,2.7678558219278899
15,21.47975029366615
16,7.663475350942122
17,-0.21821287633486009
18,1.736513970872001
2,1, 1, 1, 0,10,30.00,45.00,Tuesday
7,-7.25
8,2954.4957344842507
9,1.0
10,637.6133352894237
11,1.0
12,637.6133352894237
13,2954.4957344842507
14,2.978403368148281
15,21.54170807650259
16,8.38292994422136
17,0.2594068873034985
18,1.993136076216386
2,1, 1, 1, 0,10,45.00,60.00,Tuesday
7,-6.7
8,3152.384503655079
9,1.0
10,676.6412284283772
11,1.0
12,676.6412284283772
13,3152.384503655079
14,3.2078423844212109
15,21.7036761317294
16,9.081784140946923
17,0.7333202309747549
18,2.2438875948871428
2,1, 1, 1, 0,11, 0.00,15.00,Tuesday
7,-6.275
8,3346.9823591773949
9,1.0
10,715.0112779846514
11,1.0
12,715.0112779846514
13,3346.9823591773949
14,3.5147331049305889
15,23.80109959618321
16,9.878378015042359
17,1.4963006901236896
18,2.4924758141454306
2,1, 1, 1, 0,11,15.00,30.00,Tuesday
7,-5.85
8,3537.0739759815935
9,1.0
10,752.5077794605232
11,1.0
12,752.5077794605232
13,3537.0739759815935
14,3.808502038597804
15,25.736147846761378
16,10.65826220853478
17,2.240123900540084
18,2.74390353713612
2,1, 1, 1, 0,11,30.00,45.00,Tuesday
7,-5.425
8,3486.3549214294764
9,1.0
10,742.5988714321785
11,1.0
12,742.5988714321785
13,3486.3549214294764
14,3.9763693817863898
15,25.58808691592092
16,10.777838207108858
17,2.4918132249624138
18,2.981657358484615
2,1, 1, 1, 0,11,45.00,60.00,Tuesday
7,-5.0
8,3410.7994498435948
9,1.0
10,727.8169025450712
11,1.0
12,727.8169025450712
13,3410.7994498435948
14,4.140387621753063
15,25.358710226254446
16,10.811683576595215
17,2.7024228652583135
18,3.1939526966264
2,1, 1, 1, 0,12, 0.00,15.00,Tuesday
7,-4.575
8,3278.643045900458
9,1.0
10,700.3759009170325
11,1.0
12,700.3759009170325
13,3278.643045900458
14,4.252307917883684
15,24.615977606390734
16,10.675446253967153
17,2.8228659689765438
18,3.374857137579891
2,1, 1, 1, 0,12,15.00,30.00,Tuesday
7,-4.15
8,3178.532288203043
9,1.0
10,681.6705029034473
11,1.0
12,681.6705029034473
13,3178.532288203043
14,4.38391769195891
15,24.28535653022073
16,10.652958748380968
17,3.0347880502328055
18,3.531902950161386
2,1, 1, 1, 0,12,30.00,45.00,Tuesday
7,-3.7249999999999998
8,2787.510954562938
9,1.0
10,602.01865277251
11,1.0
12,602.01865277251
13,2787.510954562938
14,4.2997326509448519
15,21.257028217846416
16,9.769770492031057
17,2.6343146175155427
18,3.6454781571501688
2,1, 1, 1, 0,12,45.00,60.00,Tuesday
7,-3.3
8,2274.693096093222
9,1.0
10,493.55004396206007
11,1.0
12,493.55004396206007
13,2274.693096093222
14,4.11832677803384
15,17.07838262560051
16,8.387382294974146
17,1.9027378850737478
18,3.69476645427479
2,1, 1, 1, 0,13, 0.00,15.00,Tuesday
7,-3.0249999999999996
8,1872.7821239047929
9,1.0
10,412.335026418112
11,1.0
12,412.335026418112
13,1872.7821239047929
14,3.991114957577078
15,14.233521577917419
16,7.338553605443394
17,1.4089095179886045
18,3.6934725345092729
2,1, 1, 1, 0,13,15.00,30.00,Tuesday
7,-2.75
8,1367.06607109172
9,1.0
10,305.94037763660148
11,1.0
12,305.94037763660148
13,1367.06607109172
14,3.720229057596088
15,10.060133034447987
16,5.8496720448513319
17,0.6015251125930945
18,3.6508585702668219
2,1, 1, 1, 0,13,30.00,45.00,Tuesday
7,-2.475
8,1245.7174943252294
9,1.0
10,281.0763483922329
11,1.0
12,281.0763483922329
13,1245.7174943252294
14,3.7060823828285525
15,9.546742704710166
16,5.559041032460755
17,0.6514468676200522
18,3.5976936697473969
2,1, 1, 1, 0,13,45.00,60.00,Tuesday
7,-2.2
8,1126.9065105399337
9,1.0
10,256.7721209415886
11,1.0
12,256.7721209415886
13,1126.9065105399337
14,3.675902503150798
15,8.93931117201797
16,5.319434418121318
17,0.7204019038064757
18,3.5522533467995944
2,1, 1, 1, 0,14, 0.00,15.00,Tuesday
7,-1.9250000000000003
8,919.070031690966
9,1.0
10,210.73276284570657
11,1.0
12,210.73276284570657
13,919.070031690966
14,3.5658345751966866
15,7.391035726957304
16,4.7002692315065819
17,0.5105810041020504
18,3.5119929749794358
2,1, 1, 1, 0,14,15.00,30.00,Tuesday
7,-1.6500000000000002
8,814.001101350858
9,1.0
10,189.38488290342594
11,1.0
12,189.38488290342594
13,814.001101350858
14,3.5412241119937128
15,6.984224318487232
16,4.461643445460254
17,0.5664262108065259
18,3.47720401275717
2,1, 1, 1, 0,14,30.00,45.00,Tuesday
7,-1.375
8,776.7255076603376
9,1.0
10,179.3940297802914
11,1.0
12,179.3940297802914
13,776.7255076603376
14,3.5422427149509225
15,7.1044706188911939
16,4.421881217445787
17,0.7543649283299487
18,3.450299335754615
2,1, 1, 1, 0,14,45.00,60.00,Tuesday
7,-1.1
8,738.680308524697
9,1.0
10,169.43349014176136
11,1.0
12,169.43349014176136
13,738.680308524697
14,3.540673370464134
15,7.201819723080784
16,4.379114348958865
17,0.9388330949396391
18,3.4311606325666355
2,1, 1, 1, 0,15, 0.00,15.00,Tuesday
7,-1.1
8,776.6737282144568
9,1.0
10,178.15692317953907
11,1.0
12,178.15692317953907
13,776.6737282144568
14,3.5924245510497188
15,8.016256750100517
16,4.550471648292273
17,1.1063723406198279
18,3.4221062331462375
2,1, 1, 1, 0,15,15.00,30.00,Tuesday
7,-1.1
8,729.0813601735297
9,1.0
10,166.40516310952945
11,1.0
12,166.40516310952945
13,729.0813601735297
14,3.5545529141638925
15,7.653257739180175
16,4.376893235728403
17,1.0139916464411272
18,3.416669032585086
2,1, 1, 1, 0,15,30.00,45.00,Tuesday
7,-1.1
8,613.5209712923864
9,1.0
10,140.8967369711617
11,1.0
12,140.8967369711617
13,613.5209712923864
14,3.457871572896624
15,6.445751769954857
16,3.930397123350872
17,0.7095233513365429
18,3.4047285951398047
2,1, 1, 1, 0,15,45.00,60.00,Tuesday
7,-1.1
8,503.86638433571127
9,1.0
10,116.57355796743004
11,1.0
12,116.57355796743004
13,503.86638433571127
14,3.361024844268246
15,5.234012240930558
16,3.4678924001713087
17,0.3939104774202633
18,3.378608275088262
2,1, 1, 1, 0,16, 0.00,15.00,Tuesday
7,-1.1
8,399.1286926810121
9,1.0
10,93.14939272689483
11,1.0
12,93.14939272689483
13,399.1286926810121
14,3.261376713360144
15,4.174586182963184
16,3.040568509681691
17,0.14898381227538949
18,3.3384324936815239
2,1, 1, 1, 0,16,15.00,30.00,Tuesday
7,-1.1
8,247.25039705212277
9,1.0
10,57.94047897402063
11,1.0
12,57.94047897402063
13,247.25039705212277
14,3.0939137568343217
15,2.046774425422173
16,2.3875745853365517
17,-0.3020503787288362
18,3.278644525628237
2,1, 1, 1, 0,16,30.00,45.00,Tuesday
7,-1.1
8,191.3538480402952
9,1.0
10,45.38251793443488
11,1.0
12,45.38251793443488
13,191.3538480402952
14,3.034336046099011
15,1.4302438548883645
16,2.148480609248736
17,-0.42554235855334357
18,3.2072410997961615
2,1, 1, 1, 0,16,45.00,60.00,Tuesday
7,-1.1
8,133.3835988771441
9,1.0
10,32.02625108222755
11,1.0
12,32.02625108222755
13,133.3835988771441
14,2.93965958937039
15,0.5586831872144763
16,1.9023822821911836
17,-0.566744249768135
18,3.1314881334623227
2,1, 1, 1, 0,17, 0.00,15.00,Tuesday
7,-1.1
8,73.10087592385708
9,1.0
10,17.762198626050539
11,1.0
12,17.762198626050539
13,73.10087592385708
14,2.8154066819617267
15,-0.7037614351105446
16,1.5803864457554369
17,-0.8271466681084121
18,3.048669444386528
2,1, 1, 1, 0,17,15.00,30.00,Tuesday
7,-1.1
8,0.0
9,0.0
10,0.0
11,0.0
12,0.0
13,0.0
14,2.6411832711976754
15,-2.5459898107951108
16,1.1652898664098075
17,-1.2011090710249164
18,2.951298756713956
2,1, 1, 1, 0,17,30.00,45.00,Tuesday
7,-1.1
8,0.0
9,0.0
10,0.0
11,0.0
12,0.0
13,0.0
14,2.593256925403774
15,-2.686450890416254
16,1.0868986771558867
17,-1.2460342326905903
18,2.8554039576167375
2,1, 1, 1, 0,17,45.00,60.00,Tuesday
7,-1.1
8,0.0
9,0.0
10,0.0
11,0.0
12,0.0
13,0.0
14,2.5305181741991147
15,-2.886312722965229
16,1.0390271410626042
17,-1.2776728316944173
18,2.774859161428887
2,1, 1, 1, 0,18, 0.00,15.00,Tuesday
7,-1.25
8,0.0
9,0.0
10,0.0
11,0.0
12,0.0
13,0.0
14,2.4792854425203005
15,-3.0330111964173325
16,0.9437311054193742
17,-1.4107100621351947
18,2.7113622221570079
2,1, 1, 1, 0,18,15.00,30.00,Tuesday
7,-1.4
8,0.0
9,0.0
10,0.0
11,0.0
12,0.0
13,0.0
14,2.4330989921015879
15,-3.185404300617625
16,0.8662937415921874
17,-1.5292306535816352
18,2.660516181431891
2,1, 1, 1, 0,18,30.00,45.00,Tuesday
7,-1.5499999999999999
8,0.0
9,0.0
10,0.0
11,0.0
12,0.0
13,0.0
14,2.3912802435731508
15,-3.3371800777340319
16,0.7957050763146754
17,-1.6407966146100535
18,2.6172834733805239
2,1, 1, 1, 0,18,45.00,60.00,Tuesday
7,-1.7
8,0.0
9,0.0
10,0.0
11,0.0
12,0.0
13,0.0
14,2.3517487168638859
15,-3.4891283424202736
16,0.728056477607538
17,-1.75092845255665
18,2.5781740367760865
2,1, 1, 1, 0,19, 0.00,15.00,Tuesday
7,-1.825
8,0.0
9,0.0
10,0.0
11,0.0
12,0.0
13,0.0
14,2.340717130636228
15,-3.3282924677988556
16,0.6722676194796122
17,-1.8341357988778669
18,2.544938931056155
2,1, 1, 1, 0,19,15.00,30.00,Tuesday
7,-1.9500000000000002
8,0.0
9,0.0
10,0.0
11,0.0
12,0.0
13,0.0
14,2.3279853662914804
15,-3.2504791270984096
16,0.6198354636014756
17,-1.925601497712023
18,2.5190761019757899
2,1, 1, 1, 0,19,30.00,45.00,Tuesday
7,-2.075
8,0.0
9,0.0
10,0.0
11,0.0
12,0.0
13,0.0
14,2.3101807073620135
15,-3.321276733060334
16,0.5709186162265496
17,-2.018683102412183
18,2.4989457563792447
2,1, 1, 1, 0,19,45.00,60.00,Tuesday
7,-2.2
8,0.0
9,0.0
10,0.0
11,0.0
12,0.0
13,0.0
14,2.294388130425279
15,-3.2892292510544878
16,0.5198441867131578
17,-2.116826352790042
18,2.4813882641323117
2,1, 1, 1, 0,20, 0.00,15.00,Tuesday
7,-1.9250000000000003
8,0.0
9,0.0
10,0.0
11,0.0
12,0.0
13,0.0
14,2.297521767086201
15,-2.9855513458593885
16,0.606370892520431
17,-1.9342827869922417
18,2.4671919693364368
2,1, 1, 1, 0,20,15.00,30.00,Tuesday
7,-1.6500000000000002
8,0.0
9,0.0
10,0.0
11,0.0
12,0.0
13,0.0
14,2.3003467165461228
15,-2.6851969513153239
16,0.682912804429634
17,-1.7207386891196848
18,2.4568244732215729
2,1, 1, 1, 0,20,30.00,45.00,Tuesday
7,-1.375
8,0.0
9,0.0
10,0.0
11,0.0
12,0.0
13,0.0
14,2.3048885159759084
15,-2.386193086286542
16,0.7658731088361037
17,-1.5111983410448602
18,2.4497655500229325
2,1, 1, 1, 0,20,45.00,60.00,Tuesday
7,-1.1
8,0.0
9,0.0
10,0.0
11,0.0
12,0.0
13,0.0
14,2.3111546873507926
15,-2.088543400434166
16,0.8516097806210041
17,-1.2991861198948982
18,2.4452007678244227
2,1, 1, 1, 0,21, 0.00,15.00,Tuesday
7,-1.25
8,0.0
9,0.0
10,0.0
11,0.0
12,0.0
13,0.0
14,2.271396015343487
15,-2.379887032607821
16,0.791585975810051
17,-1.4059254025221435
18,2.4361519350042775
2,1, 1, 1, 0,21,15.00,30.00,Tuesday
7,-1.4
8,0.0
9,0.0
10,0.0
11,0.0
12,0.0
13,0.0
14,2.2326440669434839
15,-2.60178699681662
16,0.7299583054529535
17,-1.516507192409108
18,2.4176113288624179
2,1, 1, 1, 0,21,30.00,45.00,Tuesday
7,-1.5499999999999999
8,0.0
9,0.0
10,0.0
11,0.0
12,0.0
13,0.0
14,2.1797855790029589
15,-2.9594624678972756
16,0.6657027097132868
17,-1.629127177537498
18,2.388296120485196
2,1, 1, 1, 0,21,45.00,60.00,Tuesday
7,-1.7
8,0.0
9,0.0
10,0.0
11,0.0
12,0.0
13,0.0
14,2.121728451474519
15,-3.426547628096401
16,0.5955796983995469
17,-1.7443766036656144
18,2.350169075255065
2,1, 1, 1, 0,22, 0.00,15.00,Tuesday
7,-1.5499999999999999
8,0.0
9,0.0
10,0.0
11,0.0
12,0.0
13,0.0
14,2.1375995190484278
15,-2.9210043071102609
16,0.6158675948117889
17,-1.6562110425380752
18,2.3170466162197207
2,1, 1, 1, 0,22,15.00,30.00,Tuesday
7,-1.4
8,0.0
9,0.0
10,0.0
11,0.0
12,0.0
13,0.0
14,2.1450892529081178
15,-2.5786753619436144
16,0.6596889902668863
17,-1.5450592702156883
18,2.29683164129913
2,1, 1, 1, 0,22,30.00,45.00,Tuesday
7,-1.25
8,0.0
9,0.0
10,0.0
11,0.0
12,0.0
13,0.0
14,2.1501572962869486
15,-2.3531436502304476
16,0.703766612306481
17,-1.434611866658713
18,2.287790426334629
2,1, 1, 1, 0,22,45.00,60.00,Tuesday
7,-1.1
8,0.0
9,0.0
10,0.0
11,0.0
12,0.0
13,0.0
14,2.159058923814272
15,-2.0607718978780786
16,0.7553721756818277
17,-1.3123634241418927
18,2.2849644901859804
2,1, 1, 1, 0,23, 0.00,15.00,Tuesday
7,-1.25
8,0.0
9,0.0
10,0.0
11,0.0
12,0.0
13,0.0
14,2.1189645495758224
15,-2.3645483469508368
16,0.633604801033357
17,-1.5609490883110198
18,2.2776902985201836
2,1, 1, 1, 0,23,15.00,30.00,Tuesday
7,-1.4
8,0.0
9,0.0
10,0.0
11,0.0
12,0.0
13,0.0
14,2.081009924495663
15,-2.669103278325405
16,0.5053243797497657
17,-1.8288541444013618
18,2.260133481908352
2,1, 1, 1, 0,23,30.00,45.00,Tuesday
7,-1.5499999999999999
8,0.0
9,0.0
10,0.0
11,0.0
12,0.0
13,0.0
14,2.039008414567371
15,-2.9742764675535997
16,0.3762526698221791
17,-2.097420022795859
18,2.232822906044458
2,1, 1, 1, 0,23,45.00,60.00,Tuesday
7,-1.7
8,0.0
9,0.0
10,0.0
11,0.0
12,0.0
13,0.0
14,1.993121830319122
15,-3.279804465677139
16,0.2441528521775922
17,-2.3669496562043834
18,2.1985461198897058
2,1, 1, 1, 0,24, 0.00,15.00,Tuesday
7,-1.7
8,0.0
9,0.0
10,0.0
11,0.0
12,0.0
13,0.0
14,1.965671617617255
15,-3.333552299279073
16,0.20086489693022714
17,-2.4268743321705417
18,2.163278488195951
2,1, 1, 1, 0,24,15.00,30.00,Tuesday
7,-1.7
8,0.0
9,0.0
10,0.0
11,0.0
12,0.0
13,0.0
14,1.9350732988275639
15,-3.388101785716521
16,0.16008582062255528
17,-2.483886670331799
18,2.1303417880063146
2,1, 1, 1, 0,24,30.00,45.00,Tuesday
7,-1.7
8,0.0
9,0.0
10,0.0
11,0.0
12,0.0
13,0.0
14,1.905333198809978
15,-3.4425013979235166
16,0.11878295302295783
17,-2.5409269109541698
18,2.0999237615703985
2,1, 1, 1, 0,24,45.00,60.00,Tuesday
7,-1.7
8,0.0
9,0.0
10,0.0
11,0.0
12,0.0
13,0.0
14,1.876315452245647
15,-3.4969004086940278
16,0.07818391643331779
17,-2.5976082024836275
18,2.0710866081866334
End of Data
 Number of Records Written=        1152
