Program Version,EnergyPlus, Version 9.5.0-de239b2e5f, YMD=2023.02.17 18:13
1,5,Environment Title[],Latitude[deg],Longitude[deg],Time Zone[],Elevation[m]
2,8,Day of Simulation[],Month[],Day of Month[],DST Indicator[1=yes 0=no],Hour[],StartMinute[],EndMinute[],DayType
3,5,Cumulative Day of Simulation[],Month[],Day of Month[],DST Indicator[1=yes 0=no],DayType  ! When Daily Report Variables Requested
4,2,Cumulative Days of Simulation[],Month[]  ! When Monthly Report Variables Requested
5,1,Cumulative Days of Simulation[] ! When Run Period Report Variables Requested
6,1,Calendar Year of Simulation[] ! When Annual Report Variables Requested
7,1,Environment,Site Outdoor Air Drybulb Temperature [C] !TimeStep
8,1,ZONE ONE,Zone Windows Total Transmitted Solar Radiation Rate [W] !TimeStep
9,1,ZN001:WALL001,Surface Outside Face Sunlit Fraction [] !TimeStep
10,1,ZN001:WALL001,Surface Outside Face Incident Solar Radiation Rate per Area [W/m2] !TimeStep
11,1,ZN001:WALL001:WIN001,Surface Outside Face Sunlit Fraction [] !TimeStep
12,1,ZN001:WALL001:WIN001,Surface Outside Face Incident Solar Radiation Rate per Area [W/m2] !TimeStep
13,1,ZN001:WALL001:WIN001,Surface Window Transmitted Solar Radiation Rate [W] !TimeStep
14,1,ZN001:WALL001,Surface Inside Face Temperature [C] !TimeStep
15,1,ZN001:WALL001,Surface Outside Face Temperature [C] !TimeStep
16,1,ZN001:WALL001:WIN001,Surface Inside Face Temperature [C] !TimeStep
17,1,ZN001:WALL001:WIN001,Surface Outside Face Temperature [C] !TimeStep
18,1,ZONE ONE,Zone Mean Air Temperature [C] !TimeStep
End of Data Dictionary
1,RUN PERIOD 1,  41.98, -87.92,  -6.00, 201.00
2,1, 1, 1, 0, 1, 0.00,15.00,Tuesday
7,-4.324999999999999
8,0.0
9,0.0
10,0.0
11,0.0
12,0.0
13,0.0
14,4.310465770121944
15,-5.925443575187669
16,1.1847462156936218
17,-3.8378818457671857
18,4.714488962711955
2,1, 1, 1, 0, 1,15.00,30.00,Tuesday
7,-6.949999999999999
8,0.0
9,0.0
10,0.0
11,0.0
12,0.0
13,0.0
14,4.124889882046298
15,-8.393188634126956
16,0.3490850632410911
17,-5.753264071005674
18,4.611160021677797
2,1, 1, 1, 0, 1,30.00,45.00,Tuesday
7,-9.575
8,0.0
9,0.0
10,0.0
11,0.0
12,0.0
13,0.0
14,3.9159032673499944
15,-10.869210125497438
16,-0.4915076507175513
17,-7.674612219056371
18,4.472198972704162
2,1, 1, 1, 0, 1,45.00,60.00,Tuesday
7,-12.2
8,0.0
9,0.0
10,0.0
11,0.0
12,0.0
13,0.0
14,3.6885505353964049
15,-13.35179080608238
16,-1.3466739232767396
17,-9.604671274198836
18,4.308351715355446
2,1, 1, 1, 0, 2, 0.00,15.00,Tuesday
7,-12.075
8,0.0
9,0.0
10,0.0
11,0.0
12,0.0
13,0.0
14,3.6177402351382978
15,-13.153153550862447
16,-1.3788283264130997
17,-9.471048388581949
18,4.161975683725797
2,1, 1, 1, 0, 2,15.00,30.00,Tuesday
7,-11.95
8,0.0
9,0.0
10,0.0
11,0.0
12,0.0
13,0.0
14,3.5323558901756098
15,-12.976155342230323
16,-1.3864731844047925
17,-9.358969448559833
18,4.051742583881049
2,1, 1, 1, 0, 2,30.00,45.00,Tuesday
7,-11.825
8,0.0
9,0.0
10,0.0
11,0.0
12,0.0
13,0.0
14,3.4662237110836999
15,-12.797859605208892
16,-1.39136152780776
17,-9.237033696438232
18,3.9712877140659446
2,1, 1, 1, 0, 2,45.00,60.00,Tuesday
7,-11.7
8,0.0
9,0.0
10,0.0
11,0.0
12,0.0
13,0.0
14,3.412502316248353
15,-12.619647308297179
16,-1.3841666619638318
17,-9.109575542100459
18,3.908135901001562
2,1, 1, 1, 0, 3, 0.00,15.00,Tuesday
7,-11.549999999999999
8,0.0
9,0.0
10,0.0
11,0.0
12,0.0
13,0.0
14,3.361032005534566
15,-12.49416845646584
16,-1.3640433904860175
17,-8.968574070050977
18,3.8524693641897707
2,1, 1, 1, 0, 3,15.00,30.00,Tuesday
7,-11.399999999999999
8,0.0
9,0.0
10,0.0
11,0.0
12,0.0
13,0.0
14,3.313088183639809
15,-12.370087047342908
16,-1.3421833971962088
17,-8.82676101550203
18,3.7994813596205736
2,1, 1, 1, 0, 3,30.00,45.00,Tuesday
7,-11.25
8,0.0
9,0.0
10,0.0
11,0.0
12,0.0
13,0.0
14,3.266211244717962
15,-12.247562422158522
16,-1.3186607219290636
17,-8.684648677374355
18,3.7477343578338639
2,1, 1, 1, 0, 3,45.00,60.00,Tuesday
7,-11.1
8,0.0
9,0.0
10,0.0
11,0.0
12,0.0
13,0.0
14,3.2199794344229155
15,-12.126650854141918
16,-1.2945040343890924
17,-8.542726225298737
18,3.6970045809617009
2,1, 1, 1, 0, 4, 0.00,15.00,Tuesday
7,-11.1
8,0.0
9,0.0
10,0.0
11,0.0
12,0.0
13,0.0
14,3.169652695117358
15,-12.097531336060939
16,-1.3566427213512498
17,-8.584647855197318
18,3.645846002584663
2,1, 1, 1, 0, 4,15.00,30.00,Tuesday
7,-11.1
8,0.0
9,0.0
10,0.0
11,0.0
12,0.0
13,0.0
14,3.1196606413957816
15,-12.069550740623342
16,-1.4101775101071895
17,-8.633276532822436
18,3.593771434714298
2,1, 1, 1, 0, 4,30.00,45.00,Tuesday
7,-11.1
8,0.0
9,0.0
10,0.0
11,0.0
12,0.0
13,0.0
14,3.06928483206016
15,-12.043140390409807
16,-1.4624002342727636
17,-8.68195176417305
18,3.5410490814531898
2,1, 1, 1, 0, 4,45.00,60.00,Tuesday
7,-11.1
8,0.0
9,0.0
10,0.0
11,0.0
12,0.0
13,0.0
14,3.0187017099923727
15,-12.018162860424031
16,-1.5142355113503073
17,-8.729683589569504
18,3.488071213378482
2,1, 1, 1, 0, 5, 0.00,15.00,Tuesday
7,-10.975
8,0.0
9,0.0
10,0.0
11,0.0
12,0.0
13,0.0
14,2.9740475675325106
15,-11.896178016303491
16,-1.5083684785988112
17,-8.65603390669537
18,3.4364387379154275
2,1, 1, 1, 0, 5,15.00,30.00,Tuesday
7,-10.85
8,0.0
9,0.0
10,0.0
11,0.0
12,0.0
13,0.0
14,2.92969656584206
15,-11.774265182528401
16,-1.5058143478640318
17,-8.574816899550342
18,3.3867591054749286
2,1, 1, 1, 0, 5,30.00,45.00,Tuesday
7,-10.725
8,0.0
9,0.0
10,0.0
11,0.0
12,0.0
13,0.0
14,2.8865364461452009
15,-11.652325526392833
16,-1.5032083303902369
17,-8.49244042265559
18,3.338729371196721
2,1, 1, 1, 0, 5,45.00,60.00,Tuesday
7,-10.6
8,0.0
9,0.0
10,0.0
11,0.0
12,0.0
13,0.0
14,2.844361420676553
15,-11.530394265060755
16,-1.4998142690899386
17,-8.409644752765189
18,3.2918630680814449
2,1, 1, 1, 0, 6, 0.00,15.00,Tuesday
7,-10.6
8,0.0
9,0.0
10,0.0
11,0.0
12,0.0
13,0.0
14,2.794943681215332
15,-11.531375404412618
16,-1.5379724557420219
17,-8.415177262612815
18,3.244318058629236
2,1, 1, 1, 0, 6,15.00,30.00,Tuesday
7,-10.6
8,0.0
9,0.0
10,0.0
11,0.0
12,0.0
13,0.0
14,2.7461649134035697
15,-11.532290022278369
16,-1.5743522877478427
17,-8.426519596948197
18,3.1952987558413596
2,1, 1, 1, 0, 6,30.00,45.00,Tuesday
7,-10.6
8,0.0
9,0.0
10,0.0
11,0.0
12,0.0
13,0.0
14,2.69680465402731
15,-11.533248871138337
16,-1.6104099610029153
17,-8.438561901381889
18,3.145119898258375
2,1, 1, 1, 0, 6,45.00,60.00,Tuesday
7,-10.6
8,0.0
9,0.0
10,0.0
11,0.0
12,0.0
13,0.0
14,2.6470998532762084
15,-11.534205697890878
16,-1.6467946802167149
17,-8.45084108393337
18,3.094357903870356
2,1, 1, 1, 0, 7, 0.00,15.00,Tuesday
7,-10.6
8,0.0
9,0.0
10,0.0
11,0.0
12,0.0
13,0.0
14,2.5993492517842675
15,-11.510149657905837
16,-1.697223248105388
17,-8.492123069209015
18,3.0436147547524476
2,1, 1, 1, 0, 7,15.00,30.00,Tuesday
7,-10.6
8,0.0
9,0.0
10,0.0
11,0.0
12,0.0
13,0.0
14,2.5514341262458748
15,-11.487345710542787
16,-1.7452144458739554
17,-8.533731563551897
18,2.993231081736616
2,1, 1, 1, 0, 7,30.00,45.00,Tuesday
7,-10.6
8,0.0
9,0.0
10,0.0
11,0.0
12,0.0
13,0.0
14,2.5037508710063975
15,-11.465700665045628
16,-1.7925028001975534
17,-8.574494518328948
18,2.9432344121213016
2,1, 1, 1, 0, 7,45.00,60.00,Tuesday
7,-10.6
8,0.0
9,0.0
10,0.0
11,0.0
12,0.0
13,0.0
14,2.4563301345247288
15,-11.445145156373619
16,-1.8391432541313862
17,-8.614167879759748
18,2.8935574395783298
2,1, 1, 1, 0, 8, 0.00,15.00,Tuesday
7,-10.45
8,0.0
9,0.0
10,0.0
11,0.0
12,0.0
13,0.0
14,2.4084934639191477
15,-11.396614343535435
16,-1.841136518890039
17,-8.561088807612066
18,2.8441860007203125
2,1, 1, 1, 0, 8,15.00,30.00,Tuesday
7,-10.3
8,148.01653406384325
9,1.0
10,22.819555959623899
11,1.0
12,22.819555959623899
13,148.01653406384325
14,2.48145993696713
15,-9.723116762291813
16,-1.50398528306539
17,-8.199605479283378
18,2.8130665167514254
2,1, 1, 1, 0, 8,30.00,45.00,Tuesday
7,-10.15
8,726.7626658810535
9,1.0
10,109.75755355442667
11,1.0
12,109.75755355442667
13,726.7626658810535
14,2.8852312689934078
15,-3.3559885608504924
16,-0.1363543454305045
17,-6.9689760020875159
18,2.8499842227202198
2,1, 1, 1, 0, 8,45.00,60.00,Tuesday
7,-10.0
8,1321.5398876203654
9,1.0
10,195.8764694434918
11,1.0
12,195.8764694434918
13,1321.5398876203654
14,3.40203205729436
15,3.1329393263563207
16,1.331547068841985
17,-5.709883242350827
18,2.961709018752419
2,1, 1, 1, 0, 9, 0.00,15.00,Tuesday
7,-9.725
8,1914.2684677032626
9,1.0
10,278.97248314719988
11,1.0
12,278.97248314719988
13,1914.2684677032626
14,3.799531824202311
15,8.306801147176694
16,2.806912811966356
17,-4.572051788794283
18,3.1265972313498979
2,1, 1, 1, 0, 9,15.00,30.00,Tuesday
7,-9.45
8,2539.072313923231
9,1.0
10,364.91995730569456
11,1.0
12,364.91995730569456
13,2539.072313923231
14,4.228943913699793
15,13.387768067119039
16,4.3699214740811389
17,-3.413761317803562
18,3.3355436793486756
2,1, 1, 1, 0, 9,30.00,45.00,Tuesday
7,-9.175
8,2952.440164549716
9,1.0
10,420.35879993239237
11,1.0
12,420.35879993239237
13,2952.440164549716
14,4.536323096953089
15,16.146106094934696
16,5.364851333534375
17,-2.6961179343066989
18,3.567252439879586
2,1, 1, 1, 0, 9,45.00,60.00,Tuesday
7,-8.9
8,3381.5497710085135
9,1.0
10,478.00138373643099
11,1.0
12,478.00138373643099
13,3381.5497710085135
14,4.893833461990907
15,19.141357665794876
16,6.362699607299419
17,-1.9638646206833528
18,3.811685983582576
2,1, 1, 1, 0,10, 0.00,15.00,Tuesday
7,-8.350000000000002
8,3819.72525310092
9,1.0
10,536.9185644770597
11,1.0
12,536.9185644770597
13,3819.72525310092
14,5.196529732152833
15,20.259599993103888
16,7.360187108576554
17,-1.2632707421057035
18,4.069002980222464
2,1, 1, 1, 0,10,15.00,30.00,Tuesday
7,-7.800000000000001
8,4273.038382064532
9,1.0
10,598.0969199229219
11,1.0
12,598.0969199229219
13,4273.038382064532
14,5.526824437035711
15,21.51301331217351
16,8.371855182174784
17,-0.5634992594260666
18,4.345199877470077
2,1, 1, 1, 0,10,30.00,45.00,Tuesday
7,-7.25
8,4570.41705598247
9,1.0
10,637.6133352894237
11,1.0
12,637.6133352894237
13,4570.41705598247
14,5.781365506426888
15,21.573122312341768
16,9.084325975728632
17,-0.09600766956452844
18,4.634197927516325
2,1, 1, 1, 0,10,45.00,60.00,Tuesday
7,-6.7
8,4863.415499985352
9,1.0
10,676.6412284283772
11,1.0
12,676.6412284283772
13,4863.415499985352
14,6.060703824518638
15,21.733718639003443
16,9.775523512854307
17,0.3686273952311012
18,4.924730017282065
2,1, 1, 1, 0,11, 0.00,15.00,Tuesday
7,-6.275
8,5151.083555253686
9,1.0
10,715.0112779846514
11,1.0
12,715.0112779846514
13,5151.083555253686
14,6.41848046026863
15,23.83161210825487
16,10.564178363696442
17,1.107738681755336
18,5.218281556416952
2,1, 1, 1, 0,11,15.00,30.00,Tuesday
7,-5.85
8,5431.980261502767
9,1.0
10,752.5077794605232
11,1.0
12,752.5077794605232
13,5431.980261502767
14,6.766450706263218
15,25.76702813935761
16,11.341171282242272
17,1.8302998493725227
18,5.518195718486258
2,1, 1, 1, 0,11,30.00,45.00,Tuesday
7,-5.425
8,5348.498206243613
9,1.0
10,742.5988714321785
11,1.0
12,742.5988714321785
13,5348.498206243613
14,6.976000484841186
15,25.619153019372445
16,11.509058861931522
17,2.1011976967885177
18,5.805458990578139
2,1, 1, 1, 0,11,45.00,60.00,Tuesday
7,-5.0
8,5229.212085323862
9,1.0
10,727.8169025450712
11,1.0
12,727.8169025450712
13,5229.212085323862
14,7.1812606147031439
15,25.390297063525578
16,11.592712408463399
17,2.3336387485005618
18,6.065994152554361
2,1, 1, 1, 0,12, 0.00,15.00,Tuesday
7,-4.575
8,5024.076099878796
9,1.0
10,700.3759009170325
11,1.0
12,700.3759009170325
13,5024.076099878796
14,7.3274174547693209
15,24.647980045742515
16,11.525956991544831
17,2.4914863772536366
18,6.291896637637707
2,1, 1, 1, 0,12,15.00,30.00,Tuesday
7,-4.15
8,4871.94122931558
9,1.0
10,681.6705029034473
11,1.0
12,681.6705029034473
13,4871.94122931558
14,7.49462413540297
15,24.317783877988338
16,11.547022732920425
17,2.7234803220397909
18,6.4909429418957329
2,1, 1, 1, 0,12,30.00,45.00,Tuesday
7,-3.7249999999999998
8,4277.158639322997
9,1.0
10,602.01865277251
11,1.0
12,602.01865277251
13,4277.158639322997
14,7.419293520752318
15,21.289646124125118
16,10.786857675292993
17,2.4050132740275105
18,6.64031541733548
2,1, 1, 1, 0,12,45.00,60.00,Tuesday
7,-3.3
8,3493.2091881935878
9,1.0
10,493.55004396206007
11,1.0
12,493.55004396206007
13,3493.2091881935878
14,7.229037253504823
15,17.11141876880929
16,9.568745552400174
17,1.798559825948928
18,6.714112192396563
2,1, 1, 1, 0,13, 0.00,15.00,Tuesday
7,-3.0249999999999996
8,2884.3295946875239
9,1.0
10,412.335026418112
11,1.0
12,412.335026418112
13,2884.3295946875239
14,7.097901952009131
15,14.26728714877477
16,8.607278028816552
17,1.3740052499126705
18,6.727184813881514
2,1, 1, 1, 0,13,15.00,30.00,Tuesday
7,-2.75
8,2112.505852962877
9,1.0
10,305.94037763660148
11,1.0
12,305.94037763660148
13,2112.505852962877
14,6.800328147795035
15,10.094474166231399
16,7.249373179287886
17,0.6843006764244137
18,6.688546625588616
2,1, 1, 1, 0,13,30.00,45.00,Tuesday
7,-2.475
8,1928.6430638732532
9,1.0
10,281.0763483922329
11,1.0
12,281.0763483922329
13,1928.6430638732532
14,6.778587060431876
15,9.582204998355879
16,6.9724797374618678
17,0.7527461606021575
18,6.635468261755002
2,1, 1, 1, 0,13,45.00,60.00,Tuesday
7,-2.2
8,1748.610390799348
9,1.0
10,256.7721209415886
11,1.0
12,256.7721209415886
13,1748.610390799348
14,6.7431089354682609
15,8.974924344198037
16,6.756431245032388
17,0.8460341328880077
18,6.5917157504017089
2,1, 1, 1, 0,14, 0.00,15.00,Tuesday
7,-1.9250000000000003
8,1428.4368474723443
9,1.0
10,210.73276284570657
11,1.0
12,210.73276284570657
13,1428.4368474723443
14,6.609186116253564
15,7.427774962974027
16,6.1926741064727939
17,0.6961873317652589
18,6.554058065754767
2,1, 1, 1, 0,14,15.00,30.00,Tuesday
7,-1.6500000000000002
8,1268.9130128286689
9,1.0
10,189.38488290342594
11,1.0
12,189.38488290342594
13,1268.9130128286689
14,6.578081825670589
15,7.022148232714046
16,5.977522488565057
17,0.7789921774486857
18,6.521693446999427
2,1, 1, 1, 0,14,30.00,45.00,Tuesday
7,-1.375
8,1210.1839078162066
9,1.0
10,179.3940297802914
11,1.0
12,179.3940297802914
13,1210.1839078162066
14,6.572522468187495
15,7.1440448471826809
16,5.969951812035447
17,0.9947959793340715
18,6.495833227673357
2,1, 1, 1, 0,14,45.00,60.00,Tuesday
7,-1.1
8,1150.7838549837705
9,1.0
10,169.43349014176136
11,1.0
12,169.43349014176136
13,1150.7838549837705
14,6.563854961305857
15,7.242757555354252
16,5.956734770655089
17,1.2069893121682185
18,6.475920445529384
2,1, 1, 1, 0,15, 0.00,15.00,Tuesday
7,-1.1
8,1211.2722036175777
9,1.0
10,178.15692317953907
11,1.0
12,178.15692317953907
13,1211.2722036175777
14,6.621460459155427
15,8.058967201673149
16,6.111169856725951
17,1.3653197066121266
18,6.464939393700123
2,1, 1, 1, 0,15,15.00,30.00,Tuesday
7,-1.1
8,1137.9569692377798
9,1.0
10,166.40516310952945
11,1.0
12,166.40516310952945
13,1137.9569692377798
14,6.574850969642912
15,7.696898041636725
16,5.971127283641749
17,1.303041520551119
18,6.456910526252277
2,1, 1, 1, 0,15,30.00,45.00,Tuesday
7,-1.1
8,959.5048700077512
9,1.0
10,140.8967369711617
11,1.0
12,140.8967369711617
13,959.5048700077512
14,6.462741263966309
15,6.490527332971214
16,5.581960204101222
17,1.0537192014779749
18,6.441095385939129
2,1, 1, 1, 0,15,45.00,60.00,Tuesday
7,-1.1
8,789.5943100591383
9,1.0
10,116.57355796743004
11,1.0
12,116.57355796743004
13,789.5943100591383
14,6.344578986225473
15,5.278928896192966
16,5.198073655539133
17,0.7984619595316644
18,6.409167647486865
2,1, 1, 1, 0,16, 0.00,15.00,Tuesday
7,-1.1
8,626.6670946064958
9,1.0
10,93.14939272689483
11,1.0
12,93.14939272689483
13,626.6670946064958
14,6.238610657087388
15,4.22756489784766
16,4.864878646556292
17,0.6239876148127905
18,6.359249247766709
2,1, 1, 1, 0,16,15.00,30.00,Tuesday
7,-1.1
8,389.0360678411529
9,1.0
10,57.94047897402063
11,1.0
12,57.94047897402063
13,389.0360678411529
14,6.048466409322467
15,2.101995043468602
16,4.33852966388713
17,0.2828055947130679
18,6.283809039657088
2,1, 1, 1, 0,16,30.00,45.00,Tuesday
7,-1.1
8,301.6300334628514
9,1.0
10,45.38251793443488
11,1.0
12,45.38251793443488
13,301.6300334628514
14,5.976405097996474
15,1.4901898939082557
16,4.134187536424292
17,0.21625335019825799
18,6.193476821587504
2,1, 1, 1, 0,16,45.00,60.00,Tuesday
7,-1.1
8,210.55774644166127
9,1.0
10,32.02625108222755
11,1.0
12,32.02625108222755
13,210.55774644166127
14,5.8641569956452559
15,0.6244086597545485
16,3.934084249225293
17,0.1423305989852679
18,6.102353814852872
2,1, 1, 1, 0,17, 0.00,15.00,Tuesday
7,-1.1
8,115.49062901598868
9,1.0
10,17.762198626050539
11,1.0
12,17.762198626050539
13,115.49062901598868
14,5.725967869420297
15,-0.6299275187880938
16,3.6690188346456127
17,-0.03765014371390407
18,6.011179988879783
2,1, 1, 1, 0,17,15.00,30.00,Tuesday
7,-1.1
8,0.0
9,0.0
10,0.0
11,0.0
12,0.0
13,0.0
14,5.537469618990419
15,-2.4686614664926678
16,3.3119660389846219
17,-0.34201580336787176
18,5.908646283320963
2,1, 1, 1, 0,17,30.00,45.00,Tuesday
7,-1.1
8,0.0
9,0.0
10,0.0
11,0.0
12,0.0
13,0.0
14,5.483661954550688
15,-2.6056257301572729
16,3.250605610006005
17,-0.32922894577887976
18,5.809015979053908
2,1, 1, 1, 0,17,45.00,60.00,Tuesday
7,-1.1
8,0.0
9,0.0
10,0.0
11,0.0
12,0.0
13,0.0
14,5.414149886796597
15,-2.7990948539792068
16,3.223233035829253
17,-0.2970483828007673
18,5.725521114407479
2,1, 1, 1, 0,18, 0.00,15.00,Tuesday
7,-1.25
8,0.0
9,0.0
10,0.0
11,0.0
12,0.0
13,0.0
14,5.3558807633515
15,-2.9466202600132247
16,3.1272944047273087
17,-0.42153112499937608
18,5.658598700130786
2,1, 1, 1, 0,18,15.00,30.00,Tuesday
7,-1.4
8,0.0
9,0.0
10,0.0
11,0.0
12,0.0
13,0.0
14,5.302608626621147
15,-3.0990738085972664
16,3.0437700416471786
17,-0.5438181947106386
18,5.603127657006413
2,1, 1, 1, 0,18,30.00,45.00,Tuesday
7,-1.5499999999999999
8,0.0
9,0.0
10,0.0
11,0.0
12,0.0
13,0.0
14,5.253350338396068
15,-3.2510296255377559
16,2.964711873173428
17,-0.664926033297661
18,5.553954636095052
2,1, 1, 1, 0,18,45.00,60.00,Tuesday
7,-1.7
8,0.0
9,0.0
10,0.0
11,0.0
12,0.0
13,0.0
14,5.205998352942375
15,-3.4031597741173806
16,2.888287587216837
17,-0.7851218821543284
18,5.507833711223788
2,1, 1, 1, 0,19, 0.00,15.00,Tuesday
7,-1.825
8,0.0
9,0.0
10,0.0
11,0.0
12,0.0
13,0.0
14,5.183934838894346
15,-3.2522124434597949
16,2.7877180523941549
17,-0.956117291401597
18,5.46639784993111
2,1, 1, 1, 0,19,15.00,30.00,Tuesday
7,-1.9500000000000002
8,0.0
9,0.0
10,0.0
11,0.0
12,0.0
13,0.0
14,5.160735294446292
15,-3.1830760537978675
16,2.703555520641828
17,-1.1141565675379184
18,5.431373725417214
2,1, 1, 1, 0,19,30.00,45.00,Tuesday
7,-2.075
8,0.0
9,0.0
10,0.0
11,0.0
12,0.0
13,0.0
14,5.1327918751049659
15,-3.2562838364749466
16,2.643812562082985
17,-1.227933126257767
18,5.401598269832557
2,1, 1, 1, 0,19,45.00,60.00,Tuesday
7,-2.2
8,0.0
9,0.0
10,0.0
11,0.0
12,0.0
13,0.0
14,5.107533232516504
15,-3.231956837154459
16,2.5633179566913215
17,-1.3799387519335369
18,5.374018434129331
2,1, 1, 1, 0,20, 0.00,15.00,Tuesday
7,-1.9250000000000003
8,0.0
9,0.0
10,0.0
11,0.0
12,0.0
13,0.0
14,5.099973279228766
15,-2.9302950201702355
16,2.639178561039955
17,-1.2098669817944484
18,5.349864840930681
2,1, 1, 1, 0,20,15.00,30.00,Tuesday
7,-1.6500000000000002
8,0.0
9,0.0
10,0.0
11,0.0
12,0.0
13,0.0
14,5.092119301564858
15,-2.6316879210834895
16,2.7016218524555599
17,-1.0107457723199219
18,5.329709465515201
2,1, 1, 1, 0,20,30.00,45.00,Tuesday
7,-1.375
8,0.0
9,0.0
10,0.0
11,0.0
12,0.0
13,0.0
14,5.086403609271636
15,-2.334347675561059
16,2.775404893643781
17,-0.8253876776226434
18,5.313027358445738
2,1, 1, 1, 0,20,45.00,60.00,Tuesday
7,-1.1
8,0.0
9,0.0
10,0.0
11,0.0
12,0.0
13,0.0
14,5.082387885985581
15,-2.038287002031803
16,2.8415842371313149
17,-0.618580639360971
18,5.298807007279853
2,1, 1, 1, 0,21, 0.00,15.00,Tuesday
7,-1.25
8,0.0
9,0.0
10,0.0
11,0.0
12,0.0
13,0.0
14,5.0352185403327
15,-2.321687655830856
16,2.802624595067357
17,-0.6717186864416362
18,5.27994826204289
2,1, 1, 1, 0,21,15.00,30.00,Tuesday
7,-1.4
8,0.0
9,0.0
10,0.0
11,0.0
12,0.0
13,0.0
14,4.989469803239663
15,-2.5394291181579069
16,2.7469168924143334
17,-0.7535196142172254
18,5.251564357076184
2,1, 1, 1, 0,21,30.00,45.00,Tuesday
7,-1.5499999999999999
8,0.0
9,0.0
10,0.0
11,0.0
12,0.0
13,0.0
14,4.9302521167758999
15,-2.886754737450288
16,2.707460950050802
17,-0.7987747794480811
18,5.212937797216932
2,1, 1, 1, 0,21,45.00,60.00,Tuesday
7,-1.7
8,0.0
9,0.0
10,0.0
11,0.0
12,0.0
13,0.0
14,4.865905595641739
15,-3.342094350058251
16,2.673046280006929
17,-0.8174706373534946
18,5.166479954454445
2,1, 1, 1, 0,22, 0.00,15.00,Tuesday
7,-1.5499999999999999
8,0.0
9,0.0
10,0.0
11,0.0
12,0.0
13,0.0
14,4.871407031191819
15,-2.850541994850758
16,2.6426992921187208
17,-0.826270424609902
18,5.125419231179977
2,1, 1, 1, 0,22,15.00,30.00,Tuesday
7,-1.4
8,0.0
9,0.0
10,0.0
11,0.0
12,0.0
13,0.0
14,4.867035415783401
15,-2.517781677907958
16,2.6471253488153367
17,-0.7847981361705934
18,5.096924857654275
2,1, 1, 1, 0,22,30.00,45.00,Tuesday
7,-1.25
8,0.0
9,0.0
10,0.0
11,0.0
12,0.0
13,0.0
14,4.861214576175745
15,-2.2965280110827099
16,2.6714993361517829
17,-0.7083747022334137
18,5.079067892195383
2,1, 1, 1, 0,22,45.00,60.00,Tuesday
7,-1.1
8,0.0
9,0.0
10,0.0
11,0.0
12,0.0
13,0.0
14,4.85919283704811
15,-2.0118564876416147
16,2.688751501497279
17,-0.6463407165434774
18,5.066733712130895
2,1, 1, 1, 0,23, 0.00,15.00,Tuesday
7,-1.25
8,0.0
9,0.0
10,0.0
11,0.0
12,0.0
13,0.0
14,4.810797468626631
15,-2.315376299688053
16,2.566520349328698
17,-0.8985637301042289
18,5.049083981363892
2,1, 1, 1, 0,23,15.00,30.00,Tuesday
7,-1.4
8,0.0
9,0.0
10,0.0
11,0.0
12,0.0
13,0.0
14,4.765300471454154
15,-2.6199948452099308
16,2.43569934140902
17,-1.1665862269231866
18,5.020768128656653
2,1, 1, 1, 0,23,30.00,45.00,Tuesday
7,-1.5499999999999999
8,0.0
9,0.0
10,0.0
11,0.0
12,0.0
13,0.0
14,4.715059042318227
15,-2.925287815367816
16,2.3033457894427444
17,-1.4361001837356753
18,4.982921233316093
2,1, 1, 1, 0,23,45.00,60.00,Tuesday
7,-1.7
8,0.0
9,0.0
10,0.0
11,0.0
12,0.0
13,0.0
14,4.660791256165905
15,-3.2309240390484339
16,2.1671999403607176
17,-1.7076212084496092
18,4.938628784144733
2,1, 1, 1, 0,24, 0.00,15.00,Tuesday
7,-1.7
8,0.0
9,0.0
10,0.0
11,0.0
12,0.0
13,0.0
14,4.623299215480232
15,-3.284931689368041
16,2.115877591845333
17,-1.7736628103926365
18,4.893905544010551
2,1, 1, 1, 0,24,15.00,30.00,Tuesday
7,-1.7
8,0.0
9,0.0
10,0.0
11,0.0
12,0.0
13,0.0
14,4.5836464477826539
15,-3.339596165314215
16,2.0681200807027837
17,-1.8342128590008998
18,4.851939045340714
2,1, 1, 1, 0,24,30.00,45.00,Tuesday
7,-1.7
8,0.0
9,0.0
10,0.0
11,0.0
12,0.0
13,0.0
14,4.5451084039985309
15,-3.3941468736894508
16,2.0201519410007906
17,-1.8943975305217578
18,4.812718661562297
2,1, 1, 1, 0,24,45.00,60.00,Tuesday
7,-1.7
8,0.0
9,0.0
10,0.0
11,0.0
12,0.0
13,0.0
14,4.507430190649846
15,-3.448698998766422
16,1.973061933665349
17,-1.9540820493859883
18,4.775150730206723
End of Data
 Number of Records Written=        1152
