Program Version,EnergyPlus, Version 9.5.0-de239b2e5f, YMD=2023.02.17 18:13
1,5,Environment Title[],Latitude[deg],Longitude[deg],Time Zone[],Elevation[m]
2,8,Day of Simulation[],Month[],Day of Month[],DST Indicator[1=yes 0=no],Hour[],StartMinute[],EndMinute[],DayType
3,5,Cumulative Day of Simulation[],Month[],Day of Month[],DST Indicator[1=yes 0=no],DayType  ! When Daily Report Variables Requested
4,2,Cumulative Days of Simulation[],Month[]  ! When Monthly Report Variables Requested
5,1,Cumulative Days of Simulation[] ! When Run Period Report Variables Requested
6,1,Calendar Year of Simulation[] ! When Annual Report Variables Requested
7,1,Environment,Site Outdoor Air Drybulb Temperature [C] !TimeStep
8,1,ZONE ONE,Zone Windows Total Transmitted Solar Radiation Rate [W] !TimeStep
9,1,ZN001:WALL001,Surface Outside Face Sunlit Fraction [] !TimeStep
10,1,ZN001:WALL001,Surface Outside Face Incident Solar Radiation Rate per Area [W/m2] !TimeStep
11,1,ZN001:WALL001:WIN001,Surface Outside Face Sunlit Fraction [] !TimeStep
12,1,ZN001:WALL001:WIN001,Surface Outside Face Incident Solar Radiation Rate per Area [W/m2] !TimeStep
13,1,ZN001:WALL001:WIN001,Surface Window Transmitted Solar Radiation Rate [W] !TimeStep
14,1,ZN001:WALL001,Surface Inside Face Temperature [C] !TimeStep
15,1,ZN001:WALL001,Surface Outside Face Temperature [C] !TimeStep
16,1,ZN001:WALL001:WIN001,Surface Inside Face Temperature [C] !TimeStep
17,1,ZN001:WALL001:WIN001,Surface Outside Face Temperature [C] !TimeStep
18,1,ZONE ONE,Zone Mean Air Temperature [C] !TimeStep
End of Data Dictionary
1,RUN PERIOD 1,  41.98, -87.92,  -6.00, 201.00
2,1, 1, 1, 0, 1, 0.00,15.00,Tuesday
7,-4.324999999999999
8,0.0
9,0.0
10,0.0
11,0.0
12,0.0
13,0.0
14,5.1150797404653709
15,-5.910815461829126
16,1.7719934230107129
17,-3.6406288463215334
18,5.5372899398238799
2,1, 1, 1, 0, 1,15.00,30.00,Tuesday
7,-6.949999999999999
8,0.0
9,0.0
10,0.0
11,0.0
12,0.0
13,0.0
14,4.926862888621671
15,-8.378483329743503
16,0.9392404471801683
17,-5.555806833247857
18,5.43109981679788
2,1, 1, 1, 0, 1,30.00,45.00,Tuesday
7,-9.575
8,0.0
9,0.0
10,0.0
11,0.0
12,0.0
13,0.0
14,4.716374397589817
15,-10.854294369345265
16,0.10045336849725573
17,-7.477062807810682
18,5.2894448972427929
2,1, 1, 1, 0, 1,45.00,60.00,Tuesday
7,-12.2
8,0.0
9,0.0
10,0.0
11,0.0
12,0.0
13,0.0
14,4.487334380312748
15,-13.336730934656753
16,-0.7529064270999584
17,-9.406857800725334
18,5.123225215402351
2,1, 1, 1, 0, 2, 0.00,15.00,Tuesday
7,-12.075
8,0.0
9,0.0
10,0.0
11,0.0
12,0.0
13,0.0
14,4.413717821891243
15,-13.137977592456677
16,-0.7866489041448403
17,-9.272021643436347
18,4.974829330452624
2,1, 1, 1, 0, 2,15.00,30.00,Tuesday
7,-11.95
8,0.0
9,0.0
10,0.0
11,0.0
12,0.0
13,0.0
14,4.325791921024767
15,-12.961030940303325
16,-0.7967360765342164
17,-9.160876223268133
18,4.862705548746897
2,1, 1, 1, 0, 2,30.00,45.00,Tuesday
7,-11.825
8,0.0
9,0.0
10,0.0
11,0.0
12,0.0
13,0.0
14,4.257178333513214
15,-12.782794584890894
16,-0.8039182709442798
17,-9.039773402049378
18,4.780238861069012
2,1, 1, 1, 0, 2,45.00,60.00,Tuesday
7,-11.7
8,0.0
9,0.0
10,0.0
11,0.0
12,0.0
13,0.0
14,4.2009342172401349
15,-12.60464606262358
16,-0.7989880777776079
17,-8.913155989385189
18,4.714848159922877
2,1, 1, 1, 0, 3, 0.00,15.00,Tuesday
7,-11.549999999999999
8,0.0
9,0.0
10,0.0
11,0.0
12,0.0
13,0.0
14,4.146941057553537
15,-12.478813418676643
16,-0.7799991633911532
17,-8.770479392879907
18,4.656755376499238
2,1, 1, 1, 0, 3,15.00,30.00,Tuesday
7,-11.399999999999999
8,0.0
9,0.0
10,0.0
11,0.0
12,0.0
13,0.0
14,4.09640911583459
15,-12.354362934840316
16,-0.7594027658481082
17,-8.626842766385153
18,4.6012314773747768
2,1, 1, 1, 0, 3,30.00,45.00,Tuesday
7,-11.25
8,0.0
9,0.0
10,0.0
11,0.0
12,0.0
13,0.0
14,4.046913006652077
15,-12.231450419320004
16,-0.7371827823703825
17,-8.482876317478997
18,4.546898960196966
2,1, 1, 1, 0, 3,45.00,60.00,Tuesday
7,-11.1
8,0.0
9,0.0
10,0.0
11,0.0
12,0.0
13,0.0
14,3.998055464327354
15,-12.110131347501543
16,-0.7143361079539545
17,-8.339079588478512
18,4.493566005736844
2,1, 1, 1, 0, 4, 0.00,15.00,Tuesday
7,-11.1
8,0.0
9,0.0
10,0.0
11,0.0
12,0.0
13,0.0
14,3.945054345706693
15,-12.081535725171245
16,-0.7797908959316828
17,-8.38414627115435
18,4.4397522005838809
2,1, 1, 1, 0, 4,15.00,30.00,Tuesday
7,-11.1
8,0.0
9,0.0
10,0.0
11,0.0
12,0.0
13,0.0
14,3.892385989317475
15,-12.05405823254513
16,-0.8363567807957679
17,-8.435964292451104
18,4.38497092607004
2,1, 1, 1, 0, 4,30.00,45.00,Tuesday
7,-11.1
8,0.0
9,0.0
10,0.0
11,0.0
12,0.0
13,0.0
14,3.8393153332547538
15,-12.028126508573412
16,-0.8915900423399421
17,-8.487810583960709
18,4.329514291517222
2,1, 1, 1, 0, 4,45.00,60.00,Tuesday
7,-11.1
8,0.0
9,0.0
10,0.0
11,0.0
12,0.0
13,0.0
14,3.786032149745704
15,-12.003603626762305
16,-0.9464292674711032
17,-8.538673841437913
18,4.2737957325637299
2,1, 1, 1, 0, 5, 0.00,15.00,Tuesday
7,-10.975
8,0.0
9,0.0
10,0.0
11,0.0
12,0.0
13,0.0
14,3.7386715582240495
15,-11.881682347955126
16,-0.9426924527484744
17,-8.465797946901148
18,4.219451313611896
2,1, 1, 1, 0, 5,15.00,30.00,Tuesday
7,-10.85
8,0.0
9,0.0
10,0.0
11,0.0
12,0.0
13,0.0
14,3.6916264596347965
15,-11.759827686331472
16,-0.9423881103803637
17,-8.385292197421052
18,4.16709159961669
2,1, 1, 1, 0, 5,30.00,45.00,Tuesday
7,-10.725
8,0.0
9,0.0
10,0.0
11,0.0
12,0.0
13,0.0
14,3.6457951500656349
15,-11.637945638913111
16,-0.942025708015592
17,-8.303613641204152
18,4.116400432664338
2,1, 1, 1, 0, 5,45.00,60.00,Tuesday
7,-10.6
8,0.0
9,0.0
10,0.0
11,0.0
12,0.0
13,0.0
14,3.6009633332814197
15,-11.51607190119702
16,-0.9408597205207911
17,-8.22151020445051
18,4.066880899304319
2,1, 1, 1, 0, 6, 0.00,15.00,Tuesday
7,-10.6
8,0.0
9,0.0
10,0.0
11,0.0
12,0.0
13,0.0
14,3.548964440878949
15,-11.517095859414646
16,-0.9810664294061553
17,-8.22775068346698
18,4.016680547933245
2,1, 1, 1, 0, 6,15.00,30.00,Tuesday
7,-10.6
8,0.0
9,0.0
10,0.0
11,0.0
12,0.0
13,0.0
14,3.4976100131465408
15,-11.518059319628449
16,-1.0194509423238288
17,-8.239738920707396
18,3.9650098592530269
2,1, 1, 1, 0, 6,30.00,45.00,Tuesday
7,-10.6
8,0.0
9,0.0
10,0.0
11,0.0
12,0.0
13,0.0
14,3.4456765309410977
15,-11.519066887468579
16,-1.0575112995802556
17,-8.252418338087182
18,3.912194199755238
2,1, 1, 1, 0, 6,45.00,60.00,Tuesday
7,-10.6
8,0.0
9,0.0
10,0.0
11,0.0
12,0.0
13,0.0
14,3.3934083265867609
15,-11.520072060735828
16,-1.0958941649309396
17,-8.265331298816307
18,3.85881505763874
2,1, 1, 1, 0, 7, 0.00,15.00,Tuesday
7,-10.6
8,0.0
9,0.0
10,0.0
11,0.0
12,0.0
13,0.0
14,3.3430523242935035
15,-11.496434831201201
16,-1.1493308537112058
17,-8.30950312799746
18,3.8054564300632567
2,1, 1, 1, 0, 7,15.00,30.00,Tuesday
7,-10.6
8,0.0
9,0.0
10,0.0
11,0.0
12,0.0
13,0.0
14,3.292542292881909
15,-11.47402822410252
16,-1.2002138531404399
17,-8.354064249295789
18,3.7524509221399509
2,1, 1, 1, 0, 7,30.00,45.00,Tuesday
7,-10.6
8,0.0
9,0.0
10,0.0
11,0.0
12,0.0
13,0.0
14,3.242267388668161
15,-11.452761465081132
16,-1.2503586516418182
17,-8.397739560992818
18,3.6998279064307186
2,1, 1, 1, 0, 7,45.00,60.00,Tuesday
7,-10.6
8,0.0
9,0.0
10,0.0
11,0.0
12,0.0
13,0.0
14,3.1922578956536906
15,-11.432566141077562
16,-1.299831465988575
17,-8.440270805845785
18,3.6475246050853835
2,1, 1, 1, 0, 8, 0.00,15.00,Tuesday
7,-10.45
8,0.0
9,0.0
10,0.0
11,0.0
12,0.0
13,0.0
14,3.1419109877263216
15,-11.383763752295137
16,-1.3027339324659693
17,-8.38563792839409
18,3.595565454901313
2,1, 1, 1, 0, 8,15.00,30.00,Tuesday
7,-10.3
8,164.70730277996078
9,1.0
10,22.819555959623899
11,1.0
12,22.819555959623899
13,164.70730277996078
14,3.2155364232470156
15,-9.71011081224362
16,-0.9763519858681775
17,-8.029899734702895
18,3.5626596997355359
2,1, 1, 1, 0, 8,30.00,45.00,Tuesday
7,-10.15
8,808.7145075753374
9,1.0
10,109.75755355442667
11,1.0
12,109.75755355442667
13,808.7145075753374
14,3.6290649108876518
15,-3.3408583812433547
16,0.35043699469281366
17,-6.830250573559624
18,3.600807825468369
2,1, 1, 1, 0, 8,45.00,60.00,Tuesday
7,-10.0
8,1470.5605139501664
9,1.0
10,195.8764694434918
11,1.0
12,195.8764694434918
13,1470.5605139501664
14,4.164416460020798
15,3.149221811492502
16,1.7737858728250445
17,-5.605272979911547
18,3.716693790068083
2,1, 1, 1, 0, 9, 0.00,15.00,Tuesday
7,-9.725
8,2130.1268679617157
9,1.0
10,278.97248314719988
11,1.0
12,278.97248314719988
13,2130.1268679617157
14,4.570007233277676
15,8.318863793483274
16,3.188159232309033
17,-4.5092695857940729
18,3.8888044345456107
2,1, 1, 1, 0, 9,15.00,30.00,Tuesday
7,-9.45
8,2825.385387072841
9,1.0
10,364.91995730569456
11,1.0
12,364.91995730569456
13,2825.385387072841
14,5.017672063580476
15,13.4000118869551
16,4.7279412071660549
17,-3.3774575581653609
18,4.106488173464442
2,1, 1, 1, 0, 9,30.00,45.00,Tuesday
7,-9.175
8,3285.3657815806207
9,1.0
10,420.35879993239237
11,1.0
12,420.35879993239237
13,3285.3657815806207
14,5.337914619937372
15,16.157865393711984
16,5.715012589765195
17,-2.6790039097608657
18,4.347549084528924
2,1, 1, 1, 0, 9,45.00,60.00,Tuesday
7,-8.9
8,3762.8630174369429
9,1.0
10,478.00138373643099
11,1.0
12,478.00138373643099
13,3762.8630174369429
14,5.710644292046201
15,19.152999105633083
16,6.698560495591266
17,-1.9657836341597773
18,4.601635125762852
2,1, 1, 1, 0,10, 0.00,15.00,Tuesday
7,-8.350000000000002
8,4250.448423053731
9,1.0
10,536.9185644770597
11,1.0
12,536.9185644770597
13,4250.448423053731
14,6.029624306501015
15,20.270453317102505
16,7.682169461883632
17,-1.2828395417510024
18,4.8690596422999559
2,1, 1, 1, 0,10,15.00,30.00,Tuesday
7,-7.800000000000001
8,4754.8784400001809
9,1.0
10,598.0969199229219
11,1.0
12,598.0969199229219
13,4754.8784400001809
14,6.377366629026061
15,21.5232935856039
16,8.680145639793864
17,-0.5993989983267056
18,5.155539452257146
2,1, 1, 1, 0,10,30.00,45.00,Tuesday
7,-7.25
8,5085.790385716765
9,1.0
10,637.6133352894237
11,1.0
12,637.6133352894237
13,5085.790385716765
14,6.647571943480122
15,21.58284831147385
16,9.387138961976234
17,-0.1404998009522842
18,5.275751876664223
2,1, 1, 1, 0,10,45.00,60.00,Tuesday
7,-6.7
8,5411.8281742364
9,1.0
10,676.6412284283772
11,1.0
12,676.6412284283772
13,5411.8281742364
14,6.896336354583493
15,21.741737797287823
16,10.05143866696551
17,0.31067925655924
18,5.512688703297016
2,1, 1, 1, 0,11, 0.00,15.00,Tuesday
7,-6.275
8,5731.93450410702
9,1.0
10,715.0112779846514
11,1.0
12,715.0112779846514
13,5731.93450410702
14,7.194906884754963
15,23.83852608500361
16,10.787424027897714
17,1.0281729165185425
18,5.6968338770761399
2,1, 1, 1, 0,11,15.00,30.00,Tuesday
7,-5.85
8,6044.505928231053
9,1.0
10,752.5077794605232
11,1.0
12,752.5077794605232
13,6044.505928231053
14,7.559512306368431
15,25.775376627691416
16,11.538702180865983
17,1.7364862997206956
18,6.128188541742851
2,1, 1, 1, 0,11,30.00,45.00,Tuesday
7,-5.425
8,5951.610197095371
9,1.0
10,742.5988714321785
11,1.0
12,742.5988714321785
13,5951.610197095371
14,7.8398827488959219
15,25.629055797802474
16,11.747741387455392
17,2.0204374339574544
18,6.510742539406972
2,1, 1, 1, 0,11,45.00,60.00,Tuesday
7,-5.0
8,5818.873031211445
9,1.0
10,727.8169025450712
11,1.0
12,727.8169025450712
13,5818.873031211445
14,8.083338205457017
15,25.400019053624179
16,11.874776584406334
17,2.26680164386687
18,6.835908893040546
2,1, 1, 1, 0,12, 0.00,15.00,Tuesday
7,-4.575
8,5590.605323962885
9,1.0
10,700.3759009170325
11,1.0
12,700.3759009170325
13,5590.605323962885
14,8.255494692376399
15,24.65787520016326
16,11.842057970630606
17,2.4381350426093606
18,7.110254327978024
2,1, 1, 1, 0,12,15.00,30.00,Tuesday
7,-4.15
8,5421.315289253884
9,1.0
10,681.6705029034473
11,1.0
12,681.6705029034473
13,5421.315289253884
14,8.412845745308486
15,24.32699424923383
16,11.874696667993419
17,2.677221744117446
18,7.347750453892154
2,1, 1, 1, 0,12,30.00,45.00,Tuesday
7,-3.7249999999999998
8,4759.463309286249
9,1.0
10,602.01865277251
11,1.0
12,602.01865277251
13,4759.463309286249
14,8.35595539476683
15,21.29973206023772
16,11.155429031775953
17,2.385267310776385
18,7.525924465420103
2,1, 1, 1, 0,12,45.00,60.00,Tuesday
7,-3.3
8,3887.1134706147715
9,1.0
10,493.55004396206007
11,1.0
12,493.55004396206007
13,3887.1134706147715
14,8.169139817576779
15,17.12153011982671
16,9.9863184520176
17,1.811779701753096
18,7.619048237920846
2,1, 1, 1, 0,13, 0.00,15.00,Tuesday
7,-3.0249999999999996
8,3209.574868603734
9,1.0
10,412.335026418112
11,1.0
12,412.335026418112
13,3209.574868603734
14,8.041262172217385
15,14.277653679622164
16,9.059284984754527
17,1.4136530231722873
18,7.6444750666073999
2,1, 1, 1, 0,13,15.00,30.00,Tuesday
7,-2.75
8,2350.7180690914585
9,1.0
10,305.94037763660148
11,1.0
12,305.94037763660148
13,2350.7180690914585
14,7.737349268721155
15,10.105008521334533
16,7.725660119254371
17,0.7517200293448241
18,7.6131756950302
2,1, 1, 1, 0,13,30.00,45.00,Tuesday
7,-2.475
8,2146.122384804586
9,1.0
10,281.0763483922329
11,1.0
12,281.0763483922329
13,2146.122384804586
14,7.717117930981819
15,9.5930411772709
16,7.446630511295609
17,0.826335205160035
18,7.56470485335757
2,1, 1, 1, 0,13,45.00,60.00,Tuesday
7,-2.2
8,1945.7887113955822
9,1.0
10,256.7721209415886
11,1.0
12,256.7721209415886
13,1945.7887113955822
14,7.680692299661349
15,8.985839879045296
16,7.246783774899029
17,0.9302971296476699
18,7.524946081555034
2,1, 1, 1, 0,14, 0.00,15.00,Tuesday
7,-1.9250000000000003
8,1589.5114814468812
9,1.0
10,210.73276284570657
11,1.0
12,210.73276284570657
13,1589.5114814468812
14,7.541394356183594
15,7.43899335599688
16,6.730174003042066
17,0.8039172634245233
18,7.4890200505208279
2,1, 1, 1, 0,14,15.00,30.00,Tuesday
7,-1.6500000000000002
8,1411.9992818845379
9,1.0
10,189.38488290342594
11,1.0
12,189.38488290342594
13,1411.9992818845379
14,7.508420957669183
15,7.033699082446911
16,6.5300616800935249
17,0.8977785848462645
18,7.456532845150656
2,1, 1, 1, 0,14,30.00,45.00,Tuesday
7,-1.375
8,1346.6477146256526
9,1.0
10,179.3940297802914
11,1.0
12,179.3940297802914
13,1346.6477146256526
14,7.501075177405935
15,7.156167870506553
16,6.525300668126988
17,1.1182025762761896
18,7.429736332206904
2,1, 1, 1, 0,14,45.00,60.00,Tuesday
7,-1.1
8,1280.5495415471219
9,1.0
10,169.43349014176136
11,1.0
12,169.43349014176136
13,1280.5495415471219
14,7.489361012364392
15,7.255283741630727
16,6.514747661102604
17,1.3351897735559533
18,7.4084404600025739
2,1, 1, 1, 0,15, 0.00,15.00,Tuesday
7,-1.1
8,1347.8587297811799
9,1.0
10,178.15692317953907
11,1.0
12,178.15692317953907
13,1347.8587297811799
14,7.54946466294962
15,8.072093652618463
16,6.660477400101172
17,1.491478749317082
18,7.396165837725267
2,1, 1, 1, 0,15,15.00,30.00,Tuesday
7,-1.1
8,1266.276259391967
9,1.0
10,166.40516310952945
11,1.0
12,166.40516310952945
13,1266.276259391967
14,7.498993554114496
15,7.710248177197678
16,6.53037336949717
17,1.4367522866754144
18,7.386734824251416
2,1, 1, 1, 0,15,30.00,45.00,Tuesday
7,-1.1
8,1067.701389865137
9,1.0
10,140.8967369711617
11,1.0
12,140.8967369711617
13,1067.701389865137
14,7.383168297071873
15,6.504254080604118
16,6.16056865742155
17,1.2017887100131475
18,7.368889025068813
2,1, 1, 1, 0,15,45.00,60.00,Tuesday
7,-1.1
8,878.6312280760801
9,1.0
10,116.57355796743004
11,1.0
12,116.57355796743004
13,878.6312280760801
14,7.257829449883604
15,5.292215556836677
16,5.792754394037047
17,0.9606915162373753
18,7.334426550019562
2,1, 1, 1, 0,16, 0.00,15.00,Tuesday
7,-1.1
8,697.3318727282369
9,1.0
10,93.14939272689483
11,1.0
12,93.14939272689483
13,697.3318727282369
14,7.149845151571857
15,4.24343794787126
16,5.473913849962855
17,0.8025567128573812
18,7.280901894988963
2,1, 1, 1, 0,16,15.00,30.00,Tuesday
7,-1.1
8,432.9048901425401
9,1.0
10,57.94047897402063
11,1.0
12,57.94047897402063
13,432.9048901425401
14,6.95212028607598
15,2.118772476616894
16,4.968290631046443
17,0.48392738670406745
18,7.199510830389703
2,1, 1, 1, 0,16,30.00,45.00,Tuesday
7,-1.1
8,335.64270075152066
9,1.0
10,45.38251793443488
11,1.0
12,45.38251793443488
13,335.64270075152066
14,6.8757636873219118
15,1.508487282603584
16,4.769978866496558
17,0.4313542858932351
18,7.105915519802753
2,1, 1, 1, 0,16,45.00,60.00,Tuesday
7,-1.1
8,234.3008415590897
9,1.0
10,32.02625108222755
11,1.0
12,32.02625108222755
13,234.3008415590897
14,6.759266487588162
15,0.6445454474585138
16,4.578474245017048
17,0.3732816676360926
18,7.013458738285888
2,1, 1, 1, 0,17, 0.00,15.00,Tuesday
7,-1.1
8,128.5136834333092
9,1.0
10,17.762198626050539
11,1.0
12,17.762198626050539
13,128.5136834333092
14,6.617721945186457
15,-0.6072959582743627
16,4.322932362128995
17,0.21027221710960476
18,6.921300218078149
2,1, 1, 1, 0,17,15.00,30.00,Tuesday
7,-1.1
8,0.0
9,0.0
10,0.0
11,0.0
12,0.0
13,0.0
14,6.425397748473763
15,-2.4449086383731886
16,3.9729698872033625
17,-0.08480416230207766
18,6.816945461559145
2,1, 1, 1, 0,17,30.00,45.00,Tuesday
7,-1.1
8,0.0
9,0.0
10,0.0
11,0.0
12,0.0
13,0.0
14,6.369610351100539
15,-2.580807786924942
16,3.914958974499939
17,-0.05912872407327541
18,6.715142529562097
2,1, 1, 1, 0,17,45.00,60.00,Tuesday
7,-1.1
8,0.0
9,0.0
10,0.0
11,0.0
12,0.0
13,0.0
14,6.297565702457485
15,-2.7723125506249519
16,3.890206411016152
17,-0.01574387256511045
18,6.629648507772944
2,1, 1, 1, 0,18, 0.00,15.00,Tuesday
7,-1.25
8,0.0
9,0.0
10,0.0
11,0.0
12,0.0
13,0.0
14,6.236704537777761
15,-2.9201045846361599
16,3.790932236065487
17,-0.14237925134364105
18,6.560802880498208
2,1, 1, 1, 0,18,15.00,30.00,Tuesday
7,-1.4
8,0.0
9,0.0
10,0.0
11,0.0
12,0.0
13,0.0
14,6.18096193373515
15,-3.0725823306315429
16,3.7056056182789804
17,-0.26561525026716029
18,6.503292064982965
2,1, 1, 1, 0,18,30.00,45.00,Tuesday
7,-1.5499999999999999
8,0.0
9,0.0
10,0.0
11,0.0
12,0.0
13,0.0
14,6.129215892830279
15,-3.2245948879961676
16,3.6247681850900905
17,-0.3877550072295435
18,6.45187517513571
2,1, 1, 1, 0,18,45.00,60.00,Tuesday
7,-1.7
8,0.0
9,0.0
10,0.0
11,0.0
12,0.0
13,0.0
14,6.07932166213596
15,-3.376781616984342
16,3.5465303221384376
17,-0.5090164042059087
18,6.40332093515107
2,1, 1, 1, 0,19, 0.00,15.00,Tuesday
7,-1.825
8,0.0
9,0.0
10,0.0
11,0.0
12,0.0
13,0.0
14,6.054185779216433
15,-3.22889349698616
16,3.4373930301579778
17,-0.6962138774506457
18,6.359235903327657
2,1, 1, 1, 0,19,15.00,30.00,Tuesday
7,-1.9500000000000002
8,0.0
9,0.0
10,0.0
11,0.0
12,0.0
13,0.0
14,6.027760599275131
15,-3.1624517646656264
16,3.345148717325685
17,-0.8704362235638428
18,6.321354902377207
2,1, 1, 1, 0,19,30.00,45.00,Tuesday
7,-2.075
8,0.0
9,0.0
10,0.0
11,0.0
12,0.0
13,0.0
14,5.996771626013638
15,-3.2364018488071868
16,3.2823134253064838
17,-0.9894576538547426
18,6.288605766042347
2,1, 1, 1, 0,19,45.00,60.00,Tuesday
7,-2.2
8,0.0
9,0.0
10,0.0
11,0.0
12,0.0
13,0.0
14,5.968333857608215
15,-3.2144427662630767
16,3.1936440012588038
17,-1.156266252029809
18,6.257920687628782
2,1, 1, 1, 0,20, 0.00,15.00,Tuesday
7,-1.9250000000000003
8,0.0
9,0.0
10,0.0
11,0.0
12,0.0
13,0.0
14,5.956608316432088
15,-2.9133773323156344
16,3.2660408825227025
17,-0.9902737903737489
18,6.2305534955536239
2,1, 1, 1, 0,20,15.00,30.00,Tuesday
7,-1.6500000000000002
8,0.0
9,0.0
10,0.0
11,0.0
12,0.0
13,0.0
14,5.945481763847915
15,-2.615268471673993
16,3.3241674281406405
17,-0.7953128873231776
18,6.207165348438284
2,1, 1, 1, 0,20,30.00,45.00,Tuesday
7,-1.375
8,0.0
9,0.0
10,0.0
11,0.0
12,0.0
13,0.0
14,5.937579249278905
15,-2.3184417573727948
16,3.393654135216252
17,-0.613940243590946
18,6.187412209462529
2,1, 1, 1, 0,20,45.00,60.00,Tuesday
7,-1.1
8,0.0
9,0.0
10,0.0
11,0.0
12,0.0
13,0.0
14,5.930347595226736
15,-2.022909154189762
16,3.4560454953467
17,-0.4109284357253955
18,6.170241977627441
2,1, 1, 1, 0,21, 0.00,15.00,Tuesday
7,-1.25
8,0.0
9,0.0
10,0.0
11,0.0
12,0.0
13,0.0
14,5.880706748719864
15,-2.3038981769538204
16,3.422516415416112
17,-0.44934969099301727
18,6.148455573320938
2,1, 1, 1, 0,21,15.00,30.00,Tuesday
7,-1.4
8,0.0
9,0.0
10,0.0
11,0.0
12,0.0
13,0.0
14,5.832701535157614
15,-2.520354130709402
16,3.3679108552607888
17,-0.5236098692953419
18,6.117148692915684
2,1, 1, 1, 0,21,30.00,45.00,Tuesday
7,-1.5499999999999999
8,0.0
9,0.0
10,0.0
11,0.0
12,0.0
13,0.0
14,5.771419687931849
15,-2.8644978681128827
16,3.3344194373999018
17,-0.5514003890658614
18,6.075740134796855
2,1, 1, 1, 0,21,45.00,60.00,Tuesday
7,-1.7
8,0.0
9,0.0
10,0.0
11,0.0
12,0.0
13,0.0
14,5.705012196918362
15,-3.3161927078090005
16,3.306448838792221
17,-0.5581316968102783
18,6.026787225606724
2,1, 1, 1, 0,22, 0.00,15.00,Tuesday
7,-1.5499999999999999
8,0.0
9,0.0
10,0.0
11,0.0
12,0.0
13,0.0
14,5.707291450752299
15,-2.8289491875251766
16,3.263255279864211
17,-0.5742805274950911
18,5.983173768428659
2,1, 1, 1, 0,22,15.00,30.00,Tuesday
7,-1.4
8,0.0
9,0.0
10,0.0
11,0.0
12,0.0
13,0.0
14,5.69950906496709
15,-2.4991283852771009
16,3.2611933449084065
17,-0.5595380893012134
18,5.952049303814115
2,1, 1, 1, 0,22,30.00,45.00,Tuesday
7,-1.25
8,0.0
9,0.0
10,0.0
11,0.0
12,0.0
13,0.0
14,5.690466462126916
15,-2.2791912252832038
16,3.278366466684588
17,-0.4890681749276382
18,5.931429139803193
2,1, 1, 1, 0,22,45.00,60.00,Tuesday
7,-1.1
8,0.0
9,0.0
10,0.0
11,0.0
12,0.0
13,0.0
14,5.685180418615082
15,-1.9968792104133658
16,3.2857890694440359
17,-0.4434726079231268
18,5.916132904458352
2,1, 1, 1, 0,23, 0.00,15.00,Tuesday
7,-1.25
8,0.0
9,0.0
10,0.0
11,0.0
12,0.0
13,0.0
14,5.634139503137765
15,-2.3003485733493189
16,3.1629657873892258
17,-0.69692132656985
18,5.895311818813891
2,1, 1, 1, 0,23,15.00,30.00,Tuesday
7,-1.4
8,0.0
9,0.0
10,0.0
11,0.0
12,0.0
13,0.0
14,5.586197135698478
15,-2.6049879069199215
16,3.0312989974737549
17,-0.9645701810810579
18,5.8637649139684469
2,1, 1, 1, 0,23,30.00,45.00,Tuesday
7,-1.5499999999999999
8,0.0
9,0.0
10,0.0
11,0.0
12,0.0
13,0.0
14,5.5333666196429329
15,-2.9103151544183127
16,2.8980716611215486
17,-1.2335594294041244
18,5.822782031820599
2,1, 1, 1, 0,23,45.00,60.00,Tuesday
7,-1.7
8,0.0
9,0.0
10,0.0
11,0.0
12,0.0
13,0.0
14,5.476505103076725
15,-3.2159832914595998
16,2.7610276919764376
17,-1.5044623563836695
18,5.775511157756484
2,1, 1, 1, 0,24, 0.00,15.00,Tuesday
7,-1.7
8,0.0
9,0.0
10,0.0
11,0.0
12,0.0
13,0.0
14,5.4362337188369749
15,-3.270064907345207
16,2.7084653285645006
17,-1.5696954406204214
18,5.727990741703315
2,1, 1, 1, 0,24,15.00,30.00,Tuesday
7,-1.7
8,0.0
9,0.0
10,0.0
11,0.0
12,0.0
13,0.0
14,5.39385272092924
15,-3.324774801532589
16,2.658732082864219
17,-1.6307440341707889
18,5.68334559091334
2,1, 1, 1, 0,24,30.00,45.00,Tuesday
7,-1.7
8,0.0
9,0.0
10,0.0
11,0.0
12,0.0
13,0.0
14,5.352652783574648
15,-3.3793712677080984
16,2.6087274372717959
17,-1.6917939211444378
18,5.641485956969768
2,1, 1, 1, 0,24,45.00,60.00,Tuesday
7,-1.7
8,0.0
9,0.0
10,0.0
11,0.0
12,0.0
13,0.0
14,5.312338432503234
15,-3.4339700615929975
16,2.5594660445885326
17,-1.7527613909725233
18,5.601270265798286
End of Data
 Number of Records Written=        1152
