Program Version,EnergyPlus, Version 9.5.0-de239b2e5f, YMD=2023.02.16 21:08
1,5,Environment Title[],Latitude[deg],Longitude[deg],Time Zone[],Elevation[m]
2,8,Day of Simulation[],Month[],Day of Month[],DST Indicator[1=yes 0=no],Hour[],StartMinute[],EndMinute[],DayType
3,5,Cumulative Day of Simulation[],Month[],Day of Month[],DST Indicator[1=yes 0=no],DayType  ! When Daily Report Variables Requested
4,2,Cumulative Days of Simulation[],Month[]  ! When Monthly Report Variables Requested
5,1,Cumulative Days of Simulation[] ! When Run Period Report Variables Requested
6,1,Calendar Year of Simulation[] ! When Annual Report Variables Requested
7,1,Environment,Site Outdoor Air Drybulb Temperature [C] !TimeStep
8,1,ZONE ONE,Zone Windows Total Transmitted Solar Radiation Rate [W] !TimeStep
9,1,ZN001:WALL001,Surface Outside Face Sunlit Fraction [] !TimeStep
10,1,ZN001:WALL001,Surface Outside Face Incident Solar Radiation Rate per Area [W/m2] !TimeStep
11,1,ZN001:WALL001:WIN001,Surface Outside Face Sunlit Fraction [] !TimeStep
12,1,ZN001:WALL001:WIN001,Surface Outside Face Incident Solar Radiation Rate per Area [W/m2] !TimeStep
13,1,ZN001:WALL001:WIN001,Surface Window Transmitted Solar Radiation Rate [W] !TimeStep
14,1,ZN001:WALL001,Surface Inside Face Temperature [C] !TimeStep
15,1,ZN001:WALL001,Surface Outside Face Temperature [C] !TimeStep
16,1,ZN001:WALL001:WIN001,Surface Inside Face Temperature [C] !TimeStep
17,1,ZN001:WALL001:WIN001,Surface Outside Face Temperature [C] !TimeStep
18,1,ZONE ONE,Zone Mean Air Temperature [C] !TimeStep
End of Data Dictionary
1,RUN PERIOD 1,  41.98, -87.92,  -6.00, 201.00
2,1, 1, 1, 0, 1, 0.00,15.00,Tuesday
7,-4.324999999999999
8,0.0
9,0.0
10,0.0
11,0.0
12,0.0
13,0.0
14,0.0840674157823613
15,-6.0027238222492669
16,-1.7294002797568738
17,-4.977244469447783
18,0.38580270598973517
2,1, 1, 1, 0, 1,15.00,30.00,Tuesday
7,-6.949999999999999
8,0.0
9,0.0
10,0.0
11,0.0
12,0.0
13,0.0
14,-0.0920382754353128
15,-8.470684513002365
16,-2.53608851181383
17,-6.928215389302409
18,0.29989600344685699
2,1, 1, 1, 0, 1,30.00,45.00,Tuesday
7,-9.575
8,0.0
9,0.0
10,0.0
11,0.0
12,0.0
13,0.0
14,-0.2922057641362792
15,-10.947554546647427
16,-3.3425861366313258
17,-8.885464785289571
18,0.17738838266411117
2,1, 1, 1, 0, 1,45.00,60.00,Tuesday
7,-12.2
8,0.0
9,0.0
10,0.0
11,0.0
12,0.0
13,0.0
14,-0.5081191624884027
15,-13.430855167295075
16,-4.1621450945987139
17,-10.851887706824983
18,0.028360601106184419
2,1, 1, 1, 0, 2, 0.00,15.00,Tuesday
7,-12.075
8,0.0
9,0.0
10,0.0
11,0.0
12,0.0
13,0.0
14,-0.5630996750386665
15,-13.232866307945056
16,-4.193818192335243
17,-10.721974626295833
18,-0.10583287267413022
2,1, 1, 1, 0, 2,15.00,30.00,Tuesday
7,-11.95
8,0.0
9,0.0
10,0.0
11,0.0
12,0.0
13,0.0
14,-0.6339762591215442
15,-13.055580944188382
16,-4.192504742644701
17,-10.600512359163873
18,-0.20549957865429875
2,1, 1, 1, 0, 2,30.00,45.00,Tuesday
7,-11.825
8,0.0
9,0.0
10,0.0
11,0.0
12,0.0
13,0.0
14,-0.6864195313413165
15,-12.876975209743606
16,-4.189536928344978
17,-10.469588838452353
18,-0.27531940510161587
2,1, 1, 1, 0, 2,45.00,60.00,Tuesday
7,-11.7
8,0.0
9,0.0
10,0.0
11,0.0
12,0.0
13,0.0
14,-0.7264766843283712
15,-12.69842680733663
16,-4.174627897795403
17,-10.3334907809367
18,-0.3268104583988364
2,1, 1, 1, 0, 3, 0.00,15.00,Tuesday
7,-11.549999999999999
8,0.0
9,0.0
10,0.0
11,0.0
12,0.0
13,0.0
14,-0.7644207723950578
15,-12.574796992712108
16,-4.15434643252803
17,-10.200817802324025
18,-0.3697899143390689
2,1, 1, 1, 0, 3,15.00,30.00,Tuesday
7,-11.399999999999999
8,0.0
9,0.0
10,0.0
11,0.0
12,0.0
13,0.0
14,-0.7985051726937078
15,-12.452640173207085
16,-4.131575446985721
17,-10.068507004390142
18,-0.40942171898008636
2,1, 1, 1, 0, 3,30.00,45.00,Tuesday
7,-11.25
8,0.0
9,0.0
10,0.0
11,0.0
12,0.0
13,0.0
14,-0.8313357382247825
15,-12.332136219056395
16,-4.106873578942668
17,-9.936187338472792
18,-0.4474798937934631
2,1, 1, 1, 0, 3,45.00,60.00,Tuesday
7,-11.1
8,0.0
9,0.0
10,0.0
11,0.0
12,0.0
13,0.0
14,-0.8634729230442974
15,-12.213346376638635
16,-4.081476263427305
17,-9.804246623417328
18,-0.48438890154306649
2,1, 1, 1, 0, 4, 0.00,15.00,Tuesday
7,-11.1
8,0.0
9,0.0
10,0.0
11,0.0
12,0.0
13,0.0
14,-0.8993405992500473
15,-12.181479497174374
16,-4.124196333706095
17,-9.825772514404548
18,-0.5213308479924397
2,1, 1, 1, 0, 4,15.00,30.00,Tuesday
7,-11.1
8,0.0
9,0.0
10,0.0
11,0.0
12,0.0
13,0.0
14,-0.934833878054192
15,-12.150855602426649
16,-4.160217128699969
17,-9.853981548935565
18,-0.558772488485124
2,1, 1, 1, 0, 4,30.00,45.00,Tuesday
7,-11.1
8,0.0
9,0.0
10,0.0
11,0.0
12,0.0
13,0.0
14,-0.9705568877851939
15,-12.121928037120665
16,-4.1951606903846259
17,-9.882365524748935
18,-0.5966059233609986
2,1, 1, 1, 0, 4,45.00,60.00,Tuesday
7,-11.1
8,0.0
9,0.0
10,0.0
11,0.0
12,0.0
13,0.0
14,-1.0064181789933347
15,-12.094558135945471
16,-4.2298063278967679
17,-9.910089502553433
18,-0.6345962000622157
2,1, 1, 1, 0, 5, 0.00,15.00,Tuesday
7,-10.975
8,0.0
9,0.0
10,0.0
11,0.0
12,0.0
13,0.0
14,-1.0363375908158717
15,-11.97222471005092
16,-4.215756679698416
17,-9.82997279617939
18,-0.6714262111047393
2,1, 1, 1, 0, 5,15.00,30.00,Tuesday
7,-10.85
8,0.0
9,0.0
10,0.0
11,0.0
12,0.0
13,0.0
14,-1.0660265949380246
15,-11.849996566851785
16,-4.204233497282132
17,-9.742474019132715
18,-0.7065430640002259
2,1, 1, 1, 0, 5,30.00,45.00,Tuesday
7,-10.725
8,0.0
9,0.0
10,0.0
11,0.0
12,0.0
13,0.0
14,-1.0936816229330018
15,-11.727745831107141
16,-4.192644654658579
17,-9.653935361547554
18,-0.7400524154181061
2,1, 1, 1, 0, 5,45.00,60.00,Tuesday
7,-10.6
8,0.0
9,0.0
10,0.0
11,0.0
12,0.0
13,0.0
14,-1.1214719688031157
15,-11.605539331247583
16,-4.180069695879411
17,-9.564948100114407
18,-0.7724075933344893
2,1, 1, 1, 0, 6, 0.00,15.00,Tuesday
7,-10.6
8,0.0
9,0.0
10,0.0
11,0.0
12,0.0
13,0.0
14,-1.1577525612620575
15,-11.606286835313309
16,-4.204372903711601
17,-9.56826214147037
18,-0.8054473809437892
2,1, 1, 1, 0, 6,15.00,30.00,Tuesday
7,-10.6
8,0.0
9,0.0
10,0.0
11,0.0
12,0.0
13,0.0
14,-1.192440270664247
15,-11.606897331833132
16,-4.230696773235309
17,-9.575262383526024
18,-0.8400135722054034
2,1, 1, 1, 0, 6,30.00,45.00,Tuesday
7,-10.6
8,0.0
9,0.0
10,0.0
11,0.0
12,0.0
13,0.0
14,-1.227824447166344
15,-11.60759493123792
16,-4.2568412733024278
17,-9.583018914150899
18,-0.8758277124304632
2,1, 1, 1, 0, 6,45.00,60.00,Tuesday
7,-10.6
8,0.0
9,0.0
10,0.0
11,0.0
12,0.0
13,0.0
14,-1.263597987151215
15,-11.60828859382905
16,-4.283269579114403
17,-9.591187625454723
18,-0.9123311333569482
2,1, 1, 1, 0, 7, 0.00,15.00,Tuesday
7,-10.6
8,0.0
9,0.0
10,0.0
11,0.0
12,0.0
13,0.0
14,-1.2972019205441945
15,-11.582030387989331
16,-4.319789037217959
17,-9.612828018593632
18,-0.9488949689800105
2,1, 1, 1, 0, 7,15.00,30.00,Tuesday
7,-10.6
8,0.0
9,0.0
10,0.0
11,0.0
12,0.0
13,0.0
14,-1.331012547193311
15,-11.557139562445198
16,-4.35162768275211
17,-9.635426853979994
18,-0.9850754244517581
2,1, 1, 1, 0, 7,30.00,45.00,Tuesday
7,-10.6
8,0.0
9,0.0
10,0.0
11,0.0
12,0.0
13,0.0
14,-1.364617170156965
15,-11.533505949006031
16,-4.382846152853176
17,-9.657749720492746
18,-1.020807125338547
2,1, 1, 1, 0, 7,45.00,60.00,Tuesday
7,-10.6
8,0.0
9,0.0
10,0.0
11,0.0
12,0.0
13,0.0
14,-1.397960274295123
15,-11.511055770762726
16,-4.413577909065907
17,-9.679405638068716
18,-1.056175041904495
2,1, 1, 1, 0, 8, 0.00,15.00,Tuesday
7,-10.45
8,0.0
9,0.0
10,0.0
11,0.0
12,0.0
13,0.0
14,-1.4321512474414156
15,-11.463932228838126
16,-4.411083114383473
17,-9.645814407741739
18,-1.091431822521638
2,1, 1, 1, 0, 8,15.00,30.00,Tuesday
7,-10.3
8,62.74310911265812
9,1.0
10,22.819555959623899
11,1.0
12,22.819555959623899
13,62.74310911265812
14,-1.3621407408367646
15,-9.791249024528902
16,-4.009373722214264
17,-9.238729119225696
18,-1.1125067915667906
2,1, 1, 1, 0, 8,30.00,45.00,Tuesday
7,-10.15
8,308.5730894002722
9,1.0
10,109.75755355442667
11,1.0
12,109.75755355442667
13,308.5730894002722
14,-1.008606036177981
15,-3.4360114566825805
16,-2.386834980951903
17,-7.834727276158844
18,-1.0811559768702793
2,1, 1, 1, 0, 8,45.00,60.00,Tuesday
7,-10.0
8,562.799684008513
9,1.0
10,195.8764694434918
11,1.0
12,195.8764694434918
13,562.799684008513
14,-0.580333724164183
15,3.0541806430164675
16,-0.6176280240487699
17,-6.401319999144505
18,-0.9927647352819271
2,1, 1, 1, 0, 9, 0.00,15.00,Tuesday
7,-9.725
8,817.8903373303126
9,1.0
10,278.97248314719988
11,1.0
12,278.97248314719988
13,817.8903373303126
14,-0.25088288851757908
15,8.242490260578262
16,0.9813382638343455
17,-5.15938500760285
18,-0.8602860178059341
2,1, 1, 1, 0, 9,15.00,30.00,Tuesday
7,-9.45
8,1088.679544158928
9,1.0
10,364.91995730569456
11,1.0
12,364.91995730569456
13,1088.679544158928
14,0.10339146010679562
15,13.323933310194848
16,2.5505053612171197
17,-3.92905946624046
18,-0.6904801612082488
2,1, 1, 1, 0, 9,30.00,45.00,Tuesday
7,-9.175
8,1270.4567436635296
9,1.0
10,420.35879993239237
11,1.0
12,420.35879993239237
13,1270.4567436635296
14,0.34270567549345318
15,16.08458960696203
16,3.5673381022278365
17,-3.1653348213216079
18,-0.5014498704363026
2,1, 1, 1, 0, 9,45.00,60.00,Tuesday
7,-8.9
8,1460.1360172942112
9,1.0
10,478.00138373643099
11,1.0
12,478.00138373643099
13,1460.1360172942112
14,0.6249691057365305
15,19.080627145401399
16,4.596317729545888
17,-2.384598750052305
18,-0.3014176087018474
2,1, 1, 1, 0,10, 0.00,15.00,Tuesday
7,-8.350000000000002
8,1654.8116028101584
9,1.0
10,536.9185644770597
11,1.0
12,536.9185644770597
13,1654.8116028101584
14,0.8459609743871654
15,20.202969380072198
16,5.63393039311984
17,-1.6202686400669678
18,-0.08542034956202685
2,1, 1, 1, 0,10,15.00,30.00,Tuesday
7,-7.800000000000001
8,1857.0082543899935
9,1.0
10,598.0969199229219
11,1.0
12,598.0969199229219
13,1857.0082543899935
14,1.090724955567572
15,21.459519989412365
16,6.687825094686559
17,-0.8601966412961701
18,0.1443016975081132
2,1, 1, 1, 0,10,30.00,45.00,Tuesday
7,-7.25
8,1992.0601086428258
9,1.0
10,637.6133352894237
11,1.0
12,637.6133352894237
13,1992.0601086428258
14,1.2692115567652896
15,21.522473494376724
16,7.410312251190248
17,-0.3583524805909519
18,0.3736987318702754
2,1, 1, 1, 0,10,45.00,60.00,Tuesday
7,-6.7
8,2125.4860325366059
9,1.0
10,676.6412284283772
11,1.0
12,676.6412284283772
13,2125.4860325366059
14,1.4625426298036824
15,21.68523342299369
16,8.110683826099603
17,0.13812912268679157
18,0.594385541047859
2,1, 1, 1, 0,11, 0.00,15.00,Tuesday
7,-6.275
8,2256.693067527073
9,1.0
10,715.0112779846514
11,1.0
12,715.0112779846514
13,2256.693067527073
14,1.733248819646768
15,23.782340670312345
16,8.88813894890643
17,0.9004478598694732
18,0.8110000203214253
2,1, 1, 1, 0,11,15.00,30.00,Tuesday
7,-5.85
8,2384.8617842402206
9,1.0
10,752.5077794605232
11,1.0
12,752.5077794605232
13,2384.8617842402206
14,1.9893984992322287
15,25.717129740969879
16,9.649735541400219
17,1.6425607421525684
18,1.0287784708783872
2,1, 1, 1, 0,11,30.00,45.00,Tuesday
7,-5.425
8,2350.664610034857
9,1.0
10,742.5988714321785
11,1.0
12,742.5988714321785
13,2350.664610034857
14,2.1289632536684248
15,25.568938989094158
16,9.743482616200709
17,1.8954297682620905
18,1.2329303835630135
2,1, 1, 1, 0,11,45.00,60.00,Tuesday
7,-5.0
8,2299.7215542778105
9,1.0
10,727.8169025450712
11,1.0
12,727.8169025450712
13,2299.7215542778105
14,2.2653281008342547
15,25.33922213507075
16,9.751459864932543
17,2.108023546191248
18,1.4132040869495482
2,1, 1, 1, 0,12, 0.00,15.00,Tuesday
7,-4.575
8,2210.61548540657
9,1.0
10,700.3759009170325
11,1.0
12,700.3759009170325
13,2210.61548540657
14,2.35534960580631
15,24.596225556574365
16,9.590869848235002
17,2.2351200396171295
18,1.5649855047014139
2,1, 1, 1, 0,12,15.00,30.00,Tuesday
7,-4.15
8,2143.1160997999725
9,1.0
10,681.6705029034473
11,1.0
12,681.6705029034473
13,2143.1160997999725
14,2.4633502238777948
15,24.26533418525442
16,9.539022136077051
17,2.4475918528639228
18,1.6951228012977846
2,1, 1, 1, 0,12,30.00,45.00,Tuesday
7,-3.7249999999999998
8,1879.4711091231216
9,1.0
10,602.01865277251
11,1.0
12,602.01865277251
13,1879.4711091231216
14,2.3762313613522956
15,21.23692207515908
16,8.626112094729365
17,2.0592930675541085
18,1.7867502779589065
2,1, 1, 1, 0,12,45.00,60.00,Tuesday
7,-3.3
8,1533.7051677701307
9,1.0
10,493.55004396206007
11,1.0
12,493.55004396206007
13,1533.7051677701307
14,2.2013944987454328
15,17.05802843302269
16,7.232109984591034
17,1.3550380931661153
18,1.8231051866315785
2,1, 1, 1, 0,13, 0.00,15.00,Tuesday
7,-3.0249999999999996
8,1262.7178701484746
9,1.0
10,412.335026418112
11,1.0
12,412.335026418112
13,1262.7178701484746
14,2.0794899723046038
15,14.212810576690837
16,6.162788617698652
17,0.8709649787824674
18,1.8162448231594418
2,1, 1, 1, 0,13,15.00,30.00,Tuesday
7,-2.75
8,921.7403004904563
9,1.0
10,305.94037763660148
11,1.0
12,305.94037763660148
13,921.7403004904563
14,1.8349888417804945
15,10.039147382936625
16,4.670167167426939
17,0.08754669850702612
18,1.7727266372118296
2,1, 1, 1, 0,13,30.00,45.00,Tuesday
7,-2.475
8,839.9213774858611
9,1.0
10,281.0763483922329
11,1.0
12,281.0763483922329
13,839.9213774858611
14,1.8267620080090093
15,9.525302752381453
16,4.374568583079167
17,0.14355364536879734
18,1.71935822484629
2,1, 1, 1, 0,13,45.00,60.00,Tuesday
7,-2.2
8,759.813419127724
9,1.0
10,256.7721209415886
11,1.0
12,256.7721209415886
13,759.813419127724
14,1.7985581505586777
15,8.917633395534754
16,4.123711959535285
17,0.21639142503408949
18,1.6753730344844109
2,1, 1, 1, 0,14, 0.00,15.00,Tuesday
7,-1.9250000000000003
8,619.6802810752625
9,1.0
10,210.73276284570657
11,1.0
12,210.73276284570657
13,619.6802810752625
14,1.7022322027724
15,7.368753710369755
16,3.505580207806929
17,0.0180187588790659
18,1.6372276530812014
2,1, 1, 1, 0,14,15.00,30.00,Tuesday
7,-1.6500000000000002
8,548.8378620643327
9,1.0
10,189.38488290342594
11,1.0
12,189.38488290342594
13,548.8378620643327
14,1.685110568534769
15,6.961221160655877
16,3.2586000675620427
17,0.07165325403076395
18,1.6049539507991058
2,1, 1, 1, 0,14,30.00,45.00,Tuesday
7,-1.375
8,523.7049020298316
9,1.0
10,179.3940297802914
11,1.0
12,179.3940297802914
13,523.7049020298316
14,1.6905196971381079
15,7.080237989276525
16,3.21473781807299
17,0.25976109385271686
18,1.580274739142459
2,1, 1, 1, 0,14,45.00,60.00,Tuesday
7,-1.1
8,498.0530377746454
9,1.0
10,169.43349014176136
11,1.0
12,169.43349014176136
13,498.0530377746454
14,1.6935302392395782
15,7.176762515444162
16,3.1676133867828755
17,0.444311122932902
18,1.563367717035874
2,1, 1, 1, 0,15, 0.00,15.00,Tuesday
7,-1.1
8,523.6699898898578
9,1.0
10,178.15692317953907
11,1.0
12,178.15692317953907
13,523.6699898898578
14,1.7408261983963856
15,7.9901320291851249
16,3.328445791105821
17,0.5966009575934663
18,1.5562196894734997
2,1, 1, 1, 0,15,15.00,30.00,Tuesday
7,-1.1
8,491.58097492069296
9,1.0
10,166.40516310952945
11,1.0
12,166.40516310952945
13,491.58097492069296
14,1.7086198309691976
15,7.626594948883294
16,3.156426747618184
17,0.5005071716490761
18,1.5527065946764063
2,1, 1, 1, 0,15,30.00,45.00,Tuesday
7,-1.1
8,413.6647206704364
9,1.0
10,140.8967369711617
11,1.0
12,140.8967369711617
13,413.6647206704364
14,1.623338799984795
15,6.418390887073085
16,2.7224199671300086
17,0.19644271823136706
18,1.5433516479414658
2,1, 1, 1, 0,15,45.00,60.00,Tuesday
7,-1.1
8,339.73043609641595
9,1.0
10,116.57355796743004
11,1.0
12,116.57355796743004
13,339.73043609641595
14,1.5379470316055529
15,5.206024813340393
16,2.283175425659124
17,-0.11534453061011618
18,1.5202048422207644
2,1, 1, 1, 0,16, 0.00,15.00,Tuesday
7,-1.1
8,269.1113538004406
9,1.0
10,93.14939272689483
11,1.0
12,93.14939272689483
13,269.1113538004406
14,1.4511405144202135
15,4.1442915954228829
16,1.872628877715556
17,-0.36328725997100266
18,1.4837128980616992
2,1, 1, 1, 0,16,15.00,30.00,Tuesday
7,-1.1
8,166.70785713612708
9,1.0
10,57.94047897402063
11,1.0
12,57.94047897402063
13,166.70785713612708
14,1.2886516253722585
15,2.010630602479466
16,1.187650439292156
17,-0.8340676414093764
18,1.4319498994301759
2,1, 1, 1, 0,16,30.00,45.00,Tuesday
7,-1.1
8,129.0197724326636
9,1.0
10,45.38251793443488
11,1.0
12,45.38251793443488
13,129.0197724326636
14,1.238267974176701
15,1.393776254253018
16,0.9315666486774035
17,-0.9782465294078406
18,1.3714231365662453
2,1, 1, 1, 0,16,45.00,60.00,Tuesday
7,-1.1
8,89.93350146663998
9,1.0
10,32.02625108222755
11,1.0
12,32.02625108222755
13,89.93350146663998
14,1.1529355418143319
15,0.5183230792267781
16,0.6700803370978292
17,-1.1444081844973653
18,1.3078606402277422
2,1, 1, 1, 0,17, 0.00,15.00,Tuesday
7,-1.1
8,49.2880518103743
9,1.0
10,17.762198626050539
11,1.0
12,17.762198626050539
13,49.2880518103743
14,1.0385832892352889
15,-0.7489716596152743
16,0.3396968089356278
17,-1.4423690937736638
18,1.2387090917121533
2,1, 1, 1, 0,17,15.00,30.00,Tuesday
7,-1.1
8,0.0
9,0.0
10,0.0
11,0.0
12,0.0
13,0.0
14,0.8762737194100829
15,-2.592956250458885
16,-0.06015380845087748
17,-1.7957452582799079
18,1.153719825604328
2,1, 1, 1, 0,17,30.00,45.00,Tuesday
7,-1.1
8,0.0
9,0.0
10,0.0
11,0.0
12,0.0
13,0.0
14,0.8355958591984043
15,-2.7352950619388927
16,-0.14241375021731529
17,-1.859753885127816
18,1.0640794576490467
2,1, 1, 1, 0,17,45.00,60.00,Tuesday
7,-1.1
8,0.0
9,0.0
10,0.0
11,0.0
12,0.0
13,0.0
14,0.7785734548562111
15,-2.9390382744058205
16,-0.19981531269297649
17,-1.924465484579457
18,0.9857403285322834
2,1, 1, 1, 0,18, 0.00,15.00,Tuesday
7,-1.25
8,0.0
9,0.0
10,0.0
11,0.0
12,0.0
13,0.0
14,0.7320164022912653
15,-3.085300809636121
16,-0.28542198279870947
17,-2.056191155618876
18,0.9233384422385155
2,1, 1, 1, 0,18,15.00,30.00,Tuesday
7,-1.4
8,0.0
9,0.0
10,0.0
11,0.0
12,0.0
13,0.0
14,0.6899524786156899
15,-3.237682813540376
16,-0.3593460259036192
17,-2.1782123082406317
18,0.8741307345030975
2,1, 1, 1, 0,18,30.00,45.00,Tuesday
7,-1.5499999999999999
8,0.0
9,0.0
10,0.0
11,0.0
12,0.0
13,0.0
14,0.653356396239367
15,-3.3893576662107138
16,-0.42959494593526417
17,-2.2991713021823445
18,0.8336224233462464
2,1, 1, 1, 0,18,45.00,60.00,Tuesday
7,-1.7
8,0.0
9,0.0
10,0.0
11,0.0
12,0.0
13,0.0
14,0.618288241357252
15,-3.541276751396898
16,-0.4964368519937352
17,-2.418701721607192
18,0.7981642031633977
2,1, 1, 1, 0,19, 0.00,15.00,Tuesday
7,-1.825
8,0.0
9,0.0
10,0.0
11,0.0
12,0.0
13,0.0
14,0.6121209068788335
15,-3.3744731493391537
16,-0.5239251685432009
17,-2.44566136656249
18,0.7692974367804326
2,1, 1, 1, 0,19,15.00,30.00,Tuesday
7,-1.9500000000000002
8,0.0
9,0.0
10,0.0
11,0.0
12,0.0
13,0.0
14,0.606856350071522
15,-3.291334124429199
16,-0.5522978360044135
17,-2.4902926730118226
18,0.7484995746279086
2,1, 1, 1, 0,19,30.00,45.00,Tuesday
7,-2.075
8,0.0
9,0.0
10,0.0
11,0.0
12,0.0
13,0.0
14,0.5944341535769839
15,-3.360750737221831
16,-0.5924585883128657
17,-2.5714853582663865
18,0.7338614134873719
2,1, 1, 1, 0,19,45.00,60.00,Tuesday
7,-2.2
8,0.0
9,0.0
10,0.0
11,0.0
12,0.0
13,0.0
14,0.586247224111052
15,-3.323972037637345
16,-0.6210755721546093
17,-2.631730122323063
18,0.7223588967744656
2,1, 1, 1, 0,20, 0.00,15.00,Tuesday
7,-1.9250000000000003
8,0.0
9,0.0
10,0.0
11,0.0
12,0.0
13,0.0
14,0.5941691563851419
15,-3.0191156528266758
16,-0.5343781741951261
17,-2.4192453634477149
18,0.7141187397304633
2,1, 1, 1, 0,20,15.00,30.00,Tuesday
7,-1.6500000000000002
8,0.0
9,0.0
10,0.0
11,0.0
12,0.0
13,0.0
14,0.6031842278764747
15,-2.7176124285613998
16,-0.44864970361504677
17,-2.1971362324907206
18,0.7094273324520917
2,1, 1, 1, 0,20,30.00,45.00,Tuesday
7,-1.375
8,0.0
9,0.0
10,0.0
11,0.0
12,0.0
13,0.0
14,0.6144783029619033
15,-2.4175619171917868
16,-0.36085806953224167
17,-1.9725546342889402
18,0.7079221040991875
2,1, 1, 1, 0,20,45.00,60.00,Tuesday
7,-1.1
8,0.0
9,0.0
10,0.0
11,0.0
12,0.0
13,0.0
14,0.6272380085214983
15,-2.118939755457769
16,-0.2706009009563104
17,-1.7457952757812337
18,0.7089126791868522
2,1, 1, 1, 0,21, 0.00,15.00,Tuesday
7,-1.25
8,0.0
9,0.0
10,0.0
11,0.0
12,0.0
13,0.0
14,0.5938542857011657
15,-2.4152390260043328
16,-0.34392181532808765
17,-1.8940524104629049
18,0.7059634012832493
2,1, 1, 1, 0,21,15.00,30.00,Tuesday
7,-1.4
8,0.0
9,0.0
10,0.0
11,0.0
12,0.0
13,0.0
14,0.5577939523195301
15,-2.6397625494184857
16,-0.4081392206273904
17,-2.0279088340419095
18,0.6939105568828075
2,1, 1, 1, 0,21,30.00,45.00,Tuesday
7,-1.5499999999999999
8,0.0
9,0.0
10,0.0
11,0.0
12,0.0
13,0.0
14,0.5086996751881704
15,-3.0035993245346179
16,-0.49049827296335027
17,-2.194744413795661
18,0.6708476178036512
2,1, 1, 1, 0,21,45.00,60.00,Tuesday
7,-1.7
8,0.0
9,0.0
10,0.0
11,0.0
12,0.0
13,0.0
14,0.45444851992058296
15,-3.4776947082731839
16,-0.5850559487037117
17,-2.3901195491261548
18,0.6382643717175666
2,1, 1, 1, 0,22, 0.00,15.00,Tuesday
7,-1.5499999999999999
8,0.0
9,0.0
10,0.0
11,0.0
12,0.0
13,0.0
14,0.47780625875025425
15,-2.9636788247285206
16,-0.5260936689362552
17,-2.2163118661321734
18,0.6103426379172643
2,1, 1, 1, 0,22,15.00,30.00,Tuesday
7,-1.4
8,0.0
9,0.0
10,0.0
11,0.0
12,0.0
13,0.0
14,0.49281401991252607
15,-2.615598608666077
16,-0.460000117209006
17,-2.0501923582147585
18,0.5952185822640228
2,1, 1, 1, 0,22,30.00,45.00,Tuesday
7,-1.25
8,0.0
9,0.0
10,0.0
11,0.0
12,0.0
13,0.0
14,0.5038281948611082
15,-2.3874557377835745
16,-0.4058555920860272
17,-1.9133515740929284
18,0.5912190920979423
2,1, 1, 1, 0,22,45.00,60.00,Tuesday
7,-1.1
8,0.0
9,0.0
10,0.0
11,0.0
12,0.0
13,0.0
14,0.519570731708952
15,-2.0903388800824169
16,-0.335464147741277
17,-1.7488485884406373
18,0.5936419600706272
2,1, 1, 1, 0,23, 0.00,15.00,Tuesday
7,-1.25
8,0.0
9,0.0
10,0.0
11,0.0
12,0.0
13,0.0
14,0.4853360489476015
15,-2.3944090019632089
16,-0.4509591899447969
17,-1.9996722649561889
18,0.592568897779995
2,1, 1, 1, 0,23,15.00,30.00,Tuesday
7,-1.4
8,0.0
9,0.0
10,0.0
11,0.0
12,0.0
13,0.0
14,0.4525850544307561
15,-2.6989746424503378
16,-0.5713127946845589
17,-2.2709163603256
18,0.5821002381265461
2,1, 1, 1, 0,23,30.00,45.00,Tuesday
7,-1.5499999999999999
8,0.0
9,0.0
10,0.0
11,0.0
12,0.0
13,0.0
14,0.41456454515090399
15,-3.0040949926204498
16,-0.6921102405279953
17,-2.5426989564449515
18,0.5620463778819058
2,1, 1, 1, 0,23,45.00,60.00,Tuesday
7,-1.7
8,0.0
9,0.0
10,0.0
11,0.0
12,0.0
13,0.0
14,0.3741396341833671
15,-3.3094847092356467
16,-0.8160604284996111
17,-2.8154253534972897
18,0.534722299363646
2,1, 1, 1, 0,24, 0.00,15.00,Tuesday
7,-1.7
8,0.0
9,0.0
10,0.0
11,0.0
12,0.0
13,0.0
14,0.35250586170554
15,-3.3630501955156615
16,-0.8543743011817924
17,-2.8730895861053797
18,0.5057980064258473
2,1, 1, 1, 0,24,15.00,30.00,Tuesday
7,-1.7
8,0.0
9,0.0
10,0.0
11,0.0
12,0.0
13,0.0
14,0.3277461488441611
15,-3.417499975620059
16,-0.8901796666319228
17,-2.9288004279776489
18,0.4786771671110964
2,1, 1, 1, 0,24,30.00,45.00,Tuesday
7,-1.7
8,0.0
9,0.0
10,0.0
11,0.0
12,0.0
13,0.0
14,0.30357805450479999
15,-3.471808303722877
16,-0.9266266916389441
17,-2.984676043685681
18,0.4537943888242414
2,1, 1, 1, 0,24,45.00,60.00,Tuesday
7,-1.7
8,0.0
9,0.0
10,0.0
11,0.0
12,0.0
13,0.0
14,0.27999552222526449
15,-3.5261130383771239
16,-0.9625110724851993
17,-3.0402854888598087
18,0.430404764181718
End of Data
 Number of Records Written=        1152
