Program Version,EnergyPlus, Version 9.5.0-de239b2e5f, YMD=2023.02.16 21:09
1,5,Environment Title[],Latitude[deg],Longitude[deg],Time Zone[],Elevation[m]
2,8,Day of Simulation[],Month[],Day of Month[],DST Indicator[1=yes 0=no],Hour[],StartMinute[],EndMinute[],DayType
3,5,Cumulative Day of Simulation[],Month[],Day of Month[],DST Indicator[1=yes 0=no],DayType  ! When Daily Report Variables Requested
4,2,Cumulative Days of Simulation[],Month[]  ! When Monthly Report Variables Requested
5,1,Cumulative Days of Simulation[] ! When Run Period Report Variables Requested
6,1,Calendar Year of Simulation[] ! When Annual Report Variables Requested
7,1,Environment,Site Outdoor Air Drybulb Temperature [C] !TimeStep
8,1,ZONE ONE,Zone Windows Total Transmitted Solar Radiation Rate [W] !TimeStep
9,1,ZN001:WALL001,Surface Outside Face Sunlit Fraction [] !TimeStep
10,1,ZN001:WALL001,Surface Outside Face Incident Solar Radiation Rate per Area [W/m2] !TimeStep
11,1,ZN001:WALL001:WIN001,Surface Outside Face Sunlit Fraction [] !TimeStep
12,1,ZN001:WALL001:WIN001,Surface Outside Face Incident Solar Radiation Rate per Area [W/m2] !TimeStep
13,1,ZN001:WALL001:WIN001,Surface Window Transmitted Solar Radiation Rate [W] !TimeStep
14,1,ZN001:WALL001,Surface Inside Face Temperature [C] !TimeStep
15,1,ZN001:WALL001,Surface Outside Face Temperature [C] !TimeStep
16,1,ZN001:WALL001:WIN001,Surface Inside Face Temperature [C] !TimeStep
17,1,ZN001:WALL001:WIN001,Surface Outside Face Temperature [C] !TimeStep
18,1,ZONE ONE,Zone Mean Air Temperature [C] !TimeStep
End of Data Dictionary
1,RUN PERIOD 1,  41.98, -87.92,  -6.00, 201.00
2,1, 1, 1, 0, 1, 0.00,15.00,Tuesday
7,-4.324999999999999
8,0.0
9,0.0
10,0.0
11,0.0
12,0.0
13,0.0
14,6.737225995281547
15,-5.8812731618960278
16,3.807151281753363
17,-3.887370511682093
18,7.210695740272198
2,1, 1, 1, 0, 1,15.00,30.00,Tuesday
7,-6.949999999999999
8,0.0
9,0.0
10,0.0
11,0.0
12,0.0
13,0.0
14,6.550914370817609
15,-8.348600502910119
16,3.1243110233281756
17,-5.913415802125655
18,7.106003681689616
2,1, 1, 1, 0, 1,30.00,45.00,Tuesday
7,-9.575
8,0.0
9,0.0
10,0.0
11,0.0
12,0.0
13,0.0
14,6.343692633190223
15,-10.82392579017466
16,2.4348733108980697
17,-7.94550352272222
18,6.968530452590627
2,1, 1, 1, 0, 1,45.00,60.00,Tuesday
7,-12.2
8,0.0
9,0.0
10,0.0
11,0.0
12,0.0
13,0.0
14,6.120020099414028
15,-13.305883736721678
16,1.7304436664829837
17,-9.985362621345928
18,6.808545495059443
2,1, 1, 1, 0, 2, 0.00,15.00,Tuesday
7,-12.075
8,0.0
9,0.0
10,0.0
11,0.0
12,0.0
13,0.0
14,6.045633227771713
15,-13.1068183622598
16,1.6711927823949964
17,-9.832542773590149
18,6.664870745872856
2,1, 1, 1, 0, 2,15.00,30.00,Tuesday
7,-11.95
8,0.0
9,0.0
10,0.0
11,0.0
12,0.0
13,0.0
14,5.958088913323815
15,-12.929854783678819
16,1.6402176742731172
17,-9.69728841231057
18,6.554684699063845
2,1, 1, 1, 0, 2,30.00,45.00,Tuesday
7,-11.825
8,0.0
9,0.0
10,0.0
11,0.0
12,0.0
13,0.0
14,5.888468075641309
15,-12.751711253056158
16,1.6156433830407196
17,-9.561299092191689
18,6.471918180020754
2,1, 1, 1, 0, 2,45.00,60.00,Tuesday
7,-11.7
8,0.0
9,0.0
10,0.0
11,0.0
12,0.0
13,0.0
14,5.830442285971936
15,-12.573652947215584
16,1.607952397395195
17,-9.432079837451284
18,6.405000024647533
2,1, 1, 1, 0, 3, 0.00,15.00,Tuesday
7,-11.549999999999999
8,0.0
9,0.0
10,0.0
11,0.0
12,0.0
13,0.0
14,5.774196734694299
15,-12.447033279069121
16,1.6025576683839518
17,-9.273718453448055
18,6.344648129861148
2,1, 1, 1, 0, 3,15.00,30.00,Tuesday
7,-11.399999999999999
8,0.0
9,0.0
10,0.0
11,0.0
12,0.0
13,0.0
14,5.721252130807808
15,-12.321763870032282
16,1.6066155819954702
17,-9.134571225533705
18,6.286521503388425
2,1, 1, 1, 0, 3,30.00,45.00,Tuesday
7,-11.25
8,0.0
9,0.0
10,0.0
11,0.0
12,0.0
13,0.0
14,5.669080273961089
15,-12.197986930786064
16,1.6045896975716688
17,-8.975788212333669
18,6.2293164025998319
2,1, 1, 1, 0, 3,45.00,60.00,Tuesday
7,-11.1
8,0.0
9,0.0
10,0.0
11,0.0
12,0.0
13,0.0
14,5.6175466628298189
15,-12.075764068686164
16,1.6110518096563738
17,-8.835912451053958
18,6.173001498577032
2,1, 1, 1, 0, 4, 0.00,15.00,Tuesday
7,-11.1
8,0.0
9,0.0
10,0.0
11,0.0
12,0.0
13,0.0
14,5.562023429175812
15,-12.048201062960315
16,1.5476622904245688
17,-8.875194034616129
18,6.116430555758322
2,1, 1, 1, 0, 4,15.00,30.00,Tuesday
7,-11.1
8,0.0
9,0.0
10,0.0
11,0.0
12,0.0
13,0.0
14,5.506907258077577
15,-12.021705627299458
16,1.4913728473056836
17,-8.920973018167388
18,6.059191646387951
2,1, 1, 1, 0, 4,30.00,45.00,Tuesday
7,-11.1
8,0.0
9,0.0
10,0.0
11,0.0
12,0.0
13,0.0
14,5.451515457101984
15,-11.99670478939826
16,1.436037282872121
17,-8.96641785642305
18,6.001488616923482
2,1, 1, 1, 0, 4,45.00,60.00,Tuesday
7,-11.1
8,0.0
9,0.0
10,0.0
11,0.0
12,0.0
13,0.0
14,5.3959995858062659
15,-11.9730665232703
16,1.3809836853931757
17,-9.01078186246906
18,5.943632403957341
2,1, 1, 1, 0, 5, 0.00,15.00,Tuesday
7,-10.975
8,0.0
9,0.0
10,0.0
11,0.0
12,0.0
13,0.0
14,5.3462036479000079
15,-11.851213956987955
16,1.3709976689704036
17,-8.930245760986907
18,5.887015707498804
2,1, 1, 1, 0, 5,15.00,30.00,Tuesday
7,-10.85
8,0.0
9,0.0
10,0.0
11,0.0
12,0.0
13,0.0
14,5.296671972061271
15,-11.72942348966532
16,1.3581291500561293
17,-8.841611459890487
18,5.832166195699691
2,1, 1, 1, 0, 5,30.00,45.00,Tuesday
7,-10.725
8,0.0
9,0.0
10,0.0
11,0.0
12,0.0
13,0.0
14,5.248258055594859
15,-11.60760825624569
16,1.3454753345940845
17,-8.751996159415114
18,5.778809915224054
2,1, 1, 1, 0, 5,45.00,60.00,Tuesday
7,-10.6
8,0.0
9,0.0
10,0.0
11,0.0
12,0.0
13,0.0
14,5.200765281320745
15,-11.485802016821739
16,1.3336494211025639
17,-8.662078214549183
18,5.7265179554829
2,1, 1, 1, 0, 6, 0.00,15.00,Tuesday
7,-10.6
8,0.0
9,0.0
10,0.0
11,0.0
12,0.0
13,0.0
14,5.146322121505884
15,-11.48685953062093
16,1.288582047588534
17,-8.66579406735093
18,5.673589762008993
2,1, 1, 1, 0, 6,15.00,30.00,Tuesday
7,-10.6
8,0.0
9,0.0
10,0.0
11,0.0
12,0.0
13,0.0
14,5.092523704480876
15,-11.487868466004472
16,1.2450187175804786
17,-8.675812421387605
18,5.619298117007969
2,1, 1, 1, 0, 6,30.00,45.00,Tuesday
7,-10.6
8,0.0
9,0.0
10,0.0
11,0.0
12,0.0
13,0.0
14,5.03817869154948
15,-11.488919933420194
16,1.2016981355906183
17,-8.686448602133624
18,5.56395350743671
2,1, 1, 1, 0, 6,45.00,60.00,Tuesday
7,-10.6
8,0.0
9,0.0
10,0.0
11,0.0
12,0.0
13,0.0
14,4.983528063147436
15,-11.489968753670424
16,1.1580350961982049
17,-8.697257670688942
18,5.508100073871273
2,1, 1, 1, 0, 7, 0.00,15.00,Tuesday
7,-10.6
8,0.0
9,0.0
10,0.0
11,0.0
12,0.0
13,0.0
14,4.9307863216671079
15,-11.467167895437436
16,1.104224011205929
17,-8.73551346838849
18,5.45236144124734
2,1, 1, 1, 0, 7,15.00,30.00,Tuesday
7,-10.6
8,0.0
9,0.0
10,0.0
11,0.0
12,0.0
13,0.0
14,4.877932458611264
15,-11.445551134306504
16,1.0526770667372603
17,-8.774147650406519
18,5.397071270008258
2,1, 1, 1, 0, 7,30.00,45.00,Tuesday
7,-10.6
8,0.0
9,0.0
10,0.0
11,0.0
12,0.0
13,0.0
14,4.825360843971474
15,-11.425035616871947
16,1.0017108507600483
17,-8.811882526906573
18,5.34222842868009
2,1, 1, 1, 0, 7,45.00,60.00,Tuesday
7,-10.6
8,0.0
9,0.0
10,0.0
11,0.0
12,0.0
13,0.0
14,4.773084992184157
15,-11.40555561214313
16,0.9513254207116688
17,-8.848520524492529
18,5.287739680444274
2,1, 1, 1, 0, 8, 0.00,15.00,Tuesday
7,-10.45
8,0.0
9,0.0
10,0.0
11,0.0
12,0.0
13,0.0
14,4.720408616935364
15,-11.35611142921882
16,0.9345492620410596
17,-8.793606741516613
18,5.233431642072749
2,1, 1, 1, 0, 8,15.00,30.00,Tuesday
7,-10.3
8,181.53280301124716
9,1.0
10,22.819555959623899
11,1.0
12,22.819555959623899
13,181.53280301124716
14,4.79321298397846
15,-9.682285720469338
16,1.2284850502720702
17,-8.461920462934586
18,5.198617158552232
2,1, 1, 1, 0, 8,30.00,45.00,Tuesday
7,-10.15
8,891.3278823594253
9,1.0
10,109.75755355442667
11,1.0
12,109.75755355442667
13,891.3278823594253
14,5.209318337492192
15,-3.30951402058325
16,2.469660689613079
17,-7.360444028670827
18,5.237283073246822
2,1, 1, 1, 0, 8,45.00,60.00,Tuesday
7,-10.0
8,1620.7840671873826
9,1.0
10,195.8764694434918
11,1.0
12,195.8764694434918
13,1620.7840671873826
14,5.74760032389379
15,3.176603713650065
16,3.820398562796754
17,-6.240096822801661
18,5.356639747525613
2,1, 1, 1, 0, 9, 0.00,15.00,Tuesday
7,-9.725
8,2347.727724178928
9,1.0
10,278.97248314719988
11,1.0
12,278.97248314719988
13,2347.727724178928
14,6.180493048678429
15,8.346241445151108
16,5.195982464328722
17,-5.241125507230549
18,5.5334958947276029
2,1, 1, 1, 0, 9,15.00,30.00,Tuesday
7,-9.45
8,3114.0096416305138
9,1.0
10,364.91995730569456
11,1.0
12,364.91995730569456
13,3114.0096416305138
14,6.642352774348995
15,13.424889881368627
16,6.661704799603285
17,-4.227717202451629
18,5.756866875339511
2,1, 1, 1, 0, 9,30.00,45.00,Tuesday
7,-9.175
8,3620.9788466187658
9,1.0
10,420.35879993239237
11,1.0
12,420.35879993239237
13,3620.9788466187658
14,6.973710794591926
15,16.181890694330727
16,7.612322619301949
17,-3.5955188519581044
18,6.005283982138571
2,1, 1, 1, 0, 9,45.00,60.00,Tuesday
7,-8.9
8,4147.254307348187
9,1.0
10,478.00138373643099
11,1.0
12,478.00138373643099
13,4147.254307348187
14,7.360218653905542
15,19.176487041352585
16,8.557063782361923
17,-2.951056646874065
18,6.268244117360069
2,1, 1, 1, 0,10, 0.00,15.00,Tuesday
7,-8.350000000000002
8,4684.648484144343
9,1.0
10,536.9185644770597
11,1.0
12,536.9185644770597
13,4684.648484144343
14,7.695104632099069
15,20.292100285337836
16,9.525289951119305
17,-2.2890490986796978
18,6.546075833679977
2,1, 1, 1, 0,10,15.00,30.00,Tuesday
7,-7.800000000000001
8,5240.608015714945
9,1.0
10,598.0969199229219
11,1.0
12,598.0969199229219
13,5240.608015714945
14,8.060332585641012
15,21.543618084607325
16,10.509360102293329
17,-1.6254714752410565
18,6.844283266089846
2,1, 1, 1, 0,10,30.00,45.00,Tuesday
7,-7.25
8,5605.323921093528
9,1.0
10,637.6133352894237
11,1.0
12,637.6133352894237
13,5605.323921093528
14,8.346929825856336
15,21.601927171120559
16,11.224466467767912
17,-1.1611717468190364
18,6.969678858469745
2,1, 1, 1, 0,10,45.00,60.00,Tuesday
7,-6.7
8,5964.667754902514
9,1.0
10,676.6412284283772
11,1.0
12,676.6412284283772
13,5964.667754902514
14,8.611179489810164
15,21.75976196327106
16,11.890583253411592
17,-0.7026653722516016
18,7.218188275605311
2,1, 1, 1, 0,11, 0.00,15.00,Tuesday
7,-6.275
8,6317.474208179253
9,1.0
10,715.0112779846514
11,1.0
12,715.0112779846514
13,6317.474208179253
14,8.923953714124485
15,23.85669607796935
16,12.585635877021673
17,-0.011789826943072513
18,7.41064453836675
2,1, 1, 1, 0,11,15.00,30.00,Tuesday
7,-5.85
8,6661.976035385195
9,1.0
10,752.5077794605232
11,1.0
12,752.5077794605232
13,6661.976035385195
14,9.305581567368249
15,25.793636825768315
16,13.304752422360935
17,0.6671299327809948
18,7.863480777134495
2,1, 1, 1, 0,11,30.00,45.00,Tuesday
7,-5.425
8,6559.590639127897
9,1.0
10,742.5988714321785
11,1.0
12,742.5988714321785
13,6559.590639127897
14,9.602294618335752
15,25.647381635161019
16,13.530818445064142
17,0.9693293922202884
18,8.266039098396695
2,1, 1, 1, 0,11,45.00,60.00,Tuesday
7,-5.0
8,6413.2938485147019
9,1.0
10,727.8169025450712
11,1.0
12,727.8169025450712
13,6413.2938485147019
14,9.860279570354326
15,25.418501496639619
16,13.674132375891077
17,1.239889610722571
18,8.609270649934633
2,1, 1, 1, 0,12, 0.00,15.00,Tuesday
7,-4.575
8,6161.707695169875
9,1.0
10,700.3759009170325
11,1.0
12,700.3759009170325
13,6161.707695169875
14,10.044034069092519
15,24.67649407211334
16,13.6592029372066
17,1.4502239943977884
18,8.899699716993537
2,1, 1, 1, 0,12,15.00,30.00,Tuesday
7,-4.15
8,5975.124016097185
9,1.0
10,681.6705029034473
11,1.0
12,681.6705029034473
13,5975.124016097185
14,10.21190762296401
15,24.345729193170674
16,13.698190978674234
17,1.7228912722051178
18,9.15166011707781
2,1, 1, 1, 0,12,30.00,45.00,Tuesday
7,-3.7249999999999998
8,5245.661247450245
9,1.0
10,602.01865277251
11,1.0
12,602.01865277251
13,5245.661247450245
14,10.158530475921465
15,21.31853160204644
16,13.034183584109542
17,1.527390658129093
18,9.342013688176625
2,1, 1, 1, 0,12,45.00,60.00,Tuesday
7,-3.3
8,4284.197434080928
9,1.0
10,493.55004396206007
11,1.0
12,493.55004396206007
13,4284.197434080928
14,9.968002885843296
15,17.14049009613434
16,11.926613590601392
17,1.0809053023760953
18,9.443536891364552
2,1, 1, 1, 0,13, 0.00,15.00,Tuesday
7,-3.0249999999999996
8,3537.445593115435
9,1.0
10,412.335026418112
11,1.0
12,412.335026418112
13,3537.445593115435
14,9.837518248811094
15,14.297018777249907
16,11.03671608788477
17,0.7814325676770864
18,9.474066306727119
2,1, 1, 1, 0,13,15.00,30.00,Tuesday
7,-2.75
8,2590.853186043415
9,1.0
10,305.94037763660148
11,1.0
12,305.94037763660148
13,2590.853186043415
14,9.522206047928702
15,10.124476949460187
16,9.767682096832005
17,0.25247812117470405
18,9.444549858777894
2,1, 1, 1, 0,13,30.00,45.00,Tuesday
7,-2.475
8,2365.357246120335
9,1.0
10,281.0763483922329
11,1.0
12,281.0763483922329
13,2365.357246120335
14,9.498296924412426
15,9.612938137285747
16,9.466161779304173
17,0.3672507793817772
18,9.396479248733096
2,1, 1, 1, 0,13,45.00,60.00,Tuesday
7,-2.2
8,2144.5586982865008
9,1.0
10,256.7721209415886
11,1.0
12,256.7721209415886
13,2144.5586982865008
14,9.460763281416409
15,9.006213822339733
16,9.244746949338208
17,0.5083629076914349
18,9.356192372170723
2,1, 1, 1, 0,14, 0.00,15.00,Tuesday
7,-1.9250000000000003
8,1751.8863449049696
9,1.0
10,210.73276284570657
11,1.0
12,210.73276284570657
13,1751.8863449049696
14,9.312107038970524
15,7.459613213528399
16,8.722548160175905
17,0.4296477309949296
18,9.319435595895869
2,1, 1, 1, 0,14,15.00,30.00,Tuesday
7,-1.6500000000000002
8,1556.2405744298179
9,1.0
10,189.38488290342594
11,1.0
12,189.38488290342594
13,1556.2405744298179
14,9.272589042059437
15,7.053499675676718
16,8.497545538997429
17,0.5639025439154466
18,9.286180071454704
2,1, 1, 1, 0,14,30.00,45.00,Tuesday
7,-1.375
8,1484.2130869693643
9,1.0
10,179.3940297802914
11,1.0
12,179.3940297802914
13,1484.2130869693643
14,9.262653379262592
15,7.1792922334466999
16,8.46435642717097
17,0.8003095157876032
18,9.258043264989718
2,1, 1, 1, 0,14,45.00,60.00,Tuesday
7,-1.1
8,1411.362724961817
9,1.0
10,169.43349014176136
11,1.0
12,169.43349014176136
13,1411.362724961817
14,9.248909899600683
15,7.27901791373658
16,8.42485089143156
17,1.0343437294142178
18,9.234457155833447
2,1, 1, 1, 0,15, 0.00,15.00,Tuesday
7,-1.1
8,1485.5478120977
9,1.0
10,178.15692317953907
11,1.0
12,178.15692317953907
13,1485.5478120977
14,9.314550562426366
15,8.098648649860574
16,8.554251092726304
17,1.1754053012500095
18,9.219465682354804
2,1, 1, 1, 0,15,15.00,30.00,Tuesday
7,-1.1
8,1395.6313707719838
9,1.0
10,166.40516310952945
11,1.0
12,166.40516310952945
13,1395.6313707719838
14,9.258763352416019
15,7.7353548291240179
16,8.424930852197577
17,1.1291958420639504
18,9.20748837550623
2,1, 1, 1, 0,15,30.00,45.00,Tuesday
7,-1.1
8,1176.7712955684957
9,1.0
10,140.8967369711617
11,1.0
12,140.8967369711617
13,1176.7712955684957
14,9.134847635941185
15,6.52918697507125
16,8.064578195598415
17,0.9222117336552174
18,9.186855629786005
2,1, 1, 1, 0,15,45.00,60.00,Tuesday
7,-1.1
8,968.3868714642877
9,1.0
10,116.57355796743004
11,1.0
12,116.57355796743004
13,968.3868714642877
14,9.011959531577034
15,5.322380368412238
16,7.705577161159567
17,0.7077759844145248
18,9.14733262347503
2,1, 1, 1, 0,16, 0.00,15.00,Tuesday
7,-1.1
8,768.567072310748
9,1.0
10,93.14939272689483
11,1.0
12,93.14939272689483
13,768.567072310748
14,8.903424364415791
15,4.273926817719015
16,7.387919980562742
17,0.5777439036174314
18,9.086362099732617
2,1, 1, 1, 0,16,15.00,30.00,Tuesday
7,-1.1
8,477.1278311199492
9,1.0
10,57.94047897402063
11,1.0
12,57.94047897402063
13,477.1278311199492
14,8.69846568491912
15,2.1517267244748319
16,6.895371296124267
17,0.30308221491901579
18,8.998808268997948
2,1, 1, 1, 0,16,30.00,45.00,Tuesday
7,-1.1
8,369.92992568872679
9,1.0
10,45.38251793443488
11,1.0
12,45.38251793443488
13,369.92992568872679
14,8.616981634233375
15,1.5440175087323447
16,6.68435665303798
17,0.26898163517375908
18,8.900120134912465
2,1, 1, 1, 0,16,45.00,60.00,Tuesday
7,-1.1
8,258.23559610460418
9,1.0
10,32.02625108222755
11,1.0
12,32.02625108222755
13,258.23559610460418
14,8.495760533859635
15,0.6837479558896409
16,6.486845130121878
17,0.23249714947849044
18,8.803366553882718
2,1, 1, 1, 0,17, 0.00,15.00,Tuesday
7,-1.1
8,141.6418627784957
9,1.0
10,17.762198626050539
11,1.0
12,17.762198626050539
13,141.6418627784957
14,8.350248686349336
15,-0.5632876922190219
16,6.233361645434684
17,0.08848485632609027
18,8.707169838307913
2,1, 1, 1, 0,17,15.00,30.00,Tuesday
7,-1.1
8,0.0
9,0.0
10,0.0
11,0.0
12,0.0
13,0.0
14,8.154385486396994
15,-2.398606336330476
16,5.896592795314689
17,-0.18275318878932013
18,8.59854877116476
2,1, 1, 1, 0,17,30.00,45.00,Tuesday
7,-1.1
8,0.0
9,0.0
10,0.0
11,0.0
12,0.0
13,0.0
14,8.094497341688376
15,-2.532477875786902
16,5.8200701873958569
17,-0.15245641441885028
18,8.492637861653387
2,1, 1, 1, 0,17,45.00,60.00,Tuesday
7,-1.1
8,0.0
9,0.0
10,0.0
11,0.0
12,0.0
13,0.0
14,8.01844458862206
15,-2.7200255513661317
16,5.7824851625913429
17,-0.10521394820943897
18,8.403460454412956
2,1, 1, 1, 0,18, 0.00,15.00,Tuesday
7,-1.25
8,0.0
9,0.0
10,0.0
11,0.0
12,0.0
13,0.0
14,7.953808430340838
15,-2.8683272209732615
16,5.68680859164607
17,-0.23933790998819405
18,8.331345000114819
2,1, 1, 1, 0,18,15.00,30.00,Tuesday
7,-1.4
8,0.0
9,0.0
10,0.0
11,0.0
12,0.0
13,0.0
14,7.894571050120428
15,-3.020802549791818
16,5.604290992979884
17,-0.36896972145405018
18,8.270756723200686
2,1, 1, 1, 0,18,30.00,45.00,Tuesday
7,-1.5499999999999999
8,0.0
9,0.0
10,0.0
11,0.0
12,0.0
13,0.0
14,7.839477540597933
15,-3.172871905594683
16,5.52640880829415
17,-0.4975546546656915
18,8.21626438241022
2,1, 1, 1, 0,18,45.00,60.00,Tuesday
7,-1.7
8,0.0
9,0.0
10,0.0
11,0.0
12,0.0
13,0.0
14,7.786285684018055
15,-3.325111267017467
16,5.4513134316839
17,-0.6253906224389993
18,8.164563424188565
2,1, 1, 1, 0,19, 0.00,15.00,Tuesday
7,-1.825
8,0.0
9,0.0
10,0.0
11,0.0
12,0.0
13,0.0
14,7.757167585786761
15,-3.1832176609512579
16,5.353537125248067
17,-0.8171825185685293
18,8.117399737397083
2,1, 1, 1, 0,19,15.00,30.00,Tuesday
7,-1.9500000000000002
8,0.0
9,0.0
10,0.0
11,0.0
12,0.0
13,0.0
14,7.726745050703611
15,-3.1220143756519445
16,5.272495635276869
17,-0.9942474742660465
18,8.076542159044758
2,1, 1, 1, 0,19,30.00,45.00,Tuesday
7,-2.075
8,0.0
9,0.0
10,0.0
11,0.0
12,0.0
13,0.0
14,7.692088148004543
15,-3.1973615256256369
16,5.214222211273636
17,-1.1176593125702539
18,8.040766720873745
2,1, 1, 1, 0,19,45.00,60.00,Tuesday
7,-2.2
8,0.0
9,0.0
10,0.0
11,0.0
12,0.0
13,0.0
14,7.6600510808899389
15,-3.180015255926217
16,5.137326815441156
17,-1.2858143021925344
18,8.007009103091067
2,1, 1, 1, 0,20, 0.00,15.00,Tuesday
7,-1.9250000000000003
8,0.0
9,0.0
10,0.0
11,0.0
12,0.0
13,0.0
14,7.644059511107013
15,-2.8800716885701935
16,5.183139460082941
17,-1.0966699475445694
18,7.976129380447989
2,1, 1, 1, 0,20,15.00,30.00,Tuesday
7,-1.6500000000000002
8,0.0
9,0.0
10,0.0
11,0.0
12,0.0
13,0.0
14,7.628579289408529
15,-2.5829925676684679
16,5.225148387773174
17,-0.8949331400436904
18,7.948794992495764
2,1, 1, 1, 0,20,30.00,45.00,Tuesday
7,-1.375
8,0.0
9,0.0
10,0.0
11,0.0
12,0.0
13,0.0
14,7.615031814193555
15,-2.2871402554420956
16,5.268929230247522
17,-0.6904168239873343
18,7.92456158989539
2,1, 1, 1, 0,20,45.00,60.00,Tuesday
7,-1.1
8,0.0
9,0.0
10,0.0
11,0.0
12,0.0
13,0.0
14,7.603170744108492
15,-1.992501006454826
16,5.314995369248663
17,-0.48333746375567446
18,7.902630601769915
2,1, 1, 1, 0,21, 0.00,15.00,Tuesday
7,-1.25
8,0.0
9,0.0
10,0.0
11,0.0
12,0.0
13,0.0
14,7.551335175692104
15,-2.2686936279515974
16,5.279131816088807
17,-0.5307644823743658
18,7.876176672940907
2,1, 1, 1, 0,21,15.00,30.00,Tuesday
7,-1.4
8,0.0
9,0.0
10,0.0
11,0.0
12,0.0
13,0.0
14,7.500221604076457
15,-2.482641012582464
16,5.224297261380229
17,-0.6117641634568827
18,7.840485582650832
2,1, 1, 1, 0,21,30.00,45.00,Tuesday
7,-1.5499999999999999
8,0.0
9,0.0
10,0.0
11,0.0
12,0.0
13,0.0
14,7.436181705997822
15,-2.820403519091247
16,5.18395577133856
17,-0.6465819327790428
18,7.79491927130293
2,1, 1, 1, 0,21,45.00,60.00,Tuesday
7,-1.7
8,0.0
9,0.0
10,0.0
11,0.0
12,0.0
13,0.0
14,7.366920154019861
15,-3.2647565576977488
16,5.145824908161671
17,-0.6506350512917152
18,7.741887165860943
2,1, 1, 1, 0,22, 0.00,15.00,Tuesday
7,-1.5499999999999999
8,0.0
9,0.0
10,0.0
11,0.0
12,0.0
13,0.0
14,7.3642613298105659
15,-2.786131061907034
16,5.100087629901509
17,-0.6644384568204487
18,7.694516726055356
2,1, 1, 1, 0,22,15.00,30.00,Tuesday
7,-1.4
8,0.0
9,0.0
10,0.0
11,0.0
12,0.0
13,0.0
14,7.350366669757517
15,-2.46209681390027
16,5.094894491066384
17,-0.6432625498214861
18,7.659751483889248
2,1, 1, 1, 0,22,30.00,45.00,Tuesday
7,-1.25
8,0.0
9,0.0
10,0.0
11,0.0
12,0.0
13,0.0
14,7.336683182681799
15,-2.244690640896288
16,5.100953380870578
17,-0.5634226481578821
18,7.635316201556207
2,1, 1, 1, 0,22,45.00,60.00,Tuesday
7,-1.1
8,0.0
9,0.0
10,0.0
11,0.0
12,0.0
13,0.0
14,7.326739416185507
15,-1.9670511955823247
16,5.101893079111164
17,-0.5092622494568673
18,7.615995655808858
2,1, 1, 1, 0,23, 0.00,15.00,Tuesday
7,-1.25
8,0.0
9,0.0
10,0.0
11,0.0
12,0.0
13,0.0
14,7.273859943327768
15,-2.270376541783857
16,4.997729235525412
17,-0.7784076199272363
18,7.59127698709122
2,1, 1, 1, 0,23,15.00,30.00,Tuesday
7,-1.4
8,0.0
9,0.0
10,0.0
11,0.0
12,0.0
13,0.0
14,7.223156243217814
15,-2.575069257142285
16,4.883021736899309
17,-1.0611517386900005
18,7.556175514098474
2,1, 1, 1, 0,23,30.00,45.00,Tuesday
7,-1.5499999999999999
8,0.0
9,0.0
10,0.0
11,0.0
12,0.0
13,0.0
14,7.167633605196227
15,-2.8804071452985577
16,4.7663611623772799
17,-1.3453226210521053
18,7.512020785296759
2,1, 1, 1, 0,23,45.00,60.00,Tuesday
7,-1.7
8,0.0
9,0.0
10,0.0
11,0.0
12,0.0
13,0.0
14,7.108159700938709
15,-3.1860895383656606
16,4.645650779870948
17,-1.631376161821379
18,7.461909873317457
2,1, 1, 1, 0,24, 0.00,15.00,Tuesday
7,-1.7
8,0.0
9,0.0
10,0.0
11,0.0
12,0.0
13,0.0
14,7.0646455267116
15,-3.240275013262247
16,4.5909156597741689
17,-1.6985182474024896
18,7.4115986131208679
2,1, 1, 1, 0,24,15.00,30.00,Tuesday
7,-1.7
8,0.0
9,0.0
10,0.0
11,0.0
12,0.0
13,0.0
14,7.019083023503146
15,-3.2950379575921926
16,4.540074530047036
17,-1.7618521890586863
18,7.364052298293413
2,1, 1, 1, 0,24,30.00,45.00,Tuesday
7,-1.7
8,0.0
9,0.0
10,0.0
11,0.0
12,0.0
13,0.0
14,6.974703655018471
15,-3.349691318438952
16,4.489227459874712
17,-1.8246221556009915
18,7.319150716132214
2,1, 1, 1, 0,24,45.00,60.00,Tuesday
7,-1.7
8,0.0
9,0.0
10,0.0
11,0.0
12,0.0
13,0.0
14,6.931192926713339
15,-3.404348013233535
16,4.439345933054142
17,-1.886929411458027
18,7.2757871530773239
End of Data
 Number of Records Written=        1152
