Program Version,EnergyPlus, Version 9.5.0-de239b2e5f, YMD=2023.02.16 21:09
1,5,Environment Title[],Latitude[deg],Longitude[deg],Time Zone[],Elevation[m]
2,8,Day of Simulation[],Month[],Day of Month[],DST Indicator[1=yes 0=no],Hour[],StartMinute[],EndMinute[],DayType
3,5,Cumulative Day of Simulation[],Month[],Day of Month[],DST Indicator[1=yes 0=no],DayType  ! When Daily Report Variables Requested
4,2,Cumulative Days of Simulation[],Month[]  ! When Monthly Report Variables Requested
5,1,Cumulative Days of Simulation[] ! When Run Period Report Variables Requested
6,1,Calendar Year of Simulation[] ! When Annual Report Variables Requested
7,1,Environment,Site Outdoor Air Drybulb Temperature [C] !TimeStep
8,1,ZONE ONE,Zone Windows Total Transmitted Solar Radiation Rate [W] !TimeStep
9,1,ZN001:WALL001,Surface Outside Face Sunlit Fraction [] !TimeStep
10,1,ZN001:WALL001,Surface Outside Face Incident Solar Radiation Rate per Area [W/m2] !TimeStep
11,1,ZN001:WALL001:WIN001,Surface Outside Face Sunlit Fraction [] !TimeStep
12,1,ZN001:WALL001:WIN001,Surface Outside Face Incident Solar Radiation Rate per Area [W/m2] !TimeStep
13,1,ZN001:WALL001:WIN001,Surface Window Transmitted Solar Radiation Rate [W] !TimeStep
14,1,ZN001:WALL001,Surface Inside Face Temperature [C] !TimeStep
15,1,ZN001:WALL001,Surface Outside Face Temperature [C] !TimeStep
16,1,ZN001:WALL001:WIN001,Surface Inside Face Temperature [C] !TimeStep
17,1,ZN001:WALL001:WIN001,Surface Outside Face Temperature [C] !TimeStep
18,1,ZONE ONE,Zone Mean Air Temperature [C] !TimeStep
End of Data Dictionary
1,RUN PERIOD 1,  41.98, -87.92,  -6.00, 201.00
2,1, 1, 1, 0, 1, 0.00,15.00,Tuesday
7,-4.324999999999999
8,0.0
9,0.0
10,0.0
11,0.0
12,0.0
13,0.0
14,5.040021203346797
15,-5.9121344685575
16,2.590592980815245
17,-4.320910753195676
18,5.474018078671899
2,1, 1, 1, 0, 1,15.00,30.00,Tuesday
7,-6.949999999999999
8,0.0
9,0.0
10,0.0
11,0.0
12,0.0
13,0.0
14,4.857602559882633
15,-8.37973619667573
16,1.9294617578935914
17,-6.367073659581024
18,5.376255774125645
2,1, 1, 1, 0, 1,30.00,45.00,Tuesday
7,-9.575
8,0.0
9,0.0
10,0.0
11,0.0
12,0.0
13,0.0
14,4.654757963578425
15,-10.855377855584651
16,1.2627996762756766
17,-8.419541856503315
18,5.2456288837247799
2,1, 1, 1, 0, 1,45.00,60.00,Tuesday
7,-12.2
8,0.0
9,0.0
10,0.0
11,0.0
12,0.0
13,0.0
14,4.435646106889668
15,-13.337633872081066
16,0.5816083740768363
17,-10.479876608292216
18,5.092099149106027
2,1, 1, 1, 0, 2, 0.00,15.00,Tuesday
7,-12.075
8,0.0
9,0.0
10,0.0
11,0.0
12,0.0
13,0.0
14,4.367731074152046
15,-13.138793192498884
16,0.5219932534405416
17,-10.32801697784896
18,4.953936452389184
2,1, 1, 1, 0, 2,15.00,30.00,Tuesday
7,-11.95
8,0.0
9,0.0
10,0.0
11,0.0
12,0.0
13,0.0
14,4.286138698581708
15,-12.961708217450197
16,0.4941949222924791
17,-10.18846180189638
18,4.848605611071703
2,1, 1, 1, 0, 2,30.00,45.00,Tuesday
7,-11.825
8,0.0
9,0.0
10,0.0
11,0.0
12,0.0
13,0.0
14,4.2221572646545939
15,-12.783437471932828
16,0.4723249281014432
17,-10.048326445818646
18,4.770620716653029
2,1, 1, 1, 0, 2,45.00,60.00,Tuesday
7,-11.7
8,0.0
9,0.0
10,0.0
11,0.0
12,0.0
13,0.0
14,4.169734261730988
15,-12.605243175654028
16,0.4671829024714498
17,-9.915149900765414
18,4.708754876024773
2,1, 1, 1, 0, 3, 0.00,15.00,Tuesday
7,-11.549999999999999
8,0.0
9,0.0
10,0.0
11,0.0
12,0.0
13,0.0
14,4.119030685187752
15,-12.479367175541798
16,0.46225965276335048
17,-9.760302593109487
18,4.653747643536589
2,1, 1, 1, 0, 3,15.00,30.00,Tuesday
7,-11.399999999999999
8,0.0
9,0.0
10,0.0
11,0.0
12,0.0
13,0.0
14,4.071724154074616
15,-12.35487361266482
16,0.46665271037477398
17,-9.624325712652422
18,4.601141169625429
2,1, 1, 1, 0, 3,30.00,45.00,Tuesday
7,-11.25
8,0.0
9,0.0
10,0.0
11,0.0
12,0.0
13,0.0
14,4.025240288138834
15,-12.23191216311646
16,0.465463234605636
17,-9.469681021860425
18,4.549533397601604
2,1, 1, 1, 0, 3,45.00,60.00,Tuesday
7,-11.1
8,0.0
9,0.0
10,0.0
11,0.0
12,0.0
13,0.0
14,3.9793889933699608
15,-12.110546086194903
16,0.4723398323126844
17,-9.333075983840672
18,4.498827938910505
2,1, 1, 1, 0, 4, 0.00,15.00,Tuesday
7,-11.1
8,0.0
9,0.0
10,0.0
11,0.0
12,0.0
13,0.0
14,3.929682474212521
15,-12.081874845193726
16,0.41644298594974318
17,-9.364174346107575
18,4.447988870412959
2,1, 1, 1, 0, 4,15.00,30.00,Tuesday
7,-11.1
8,0.0
9,0.0
10,0.0
11,0.0
12,0.0
13,0.0
14,3.8803873041289318
15,-12.054314679336154
16,0.3668772838269092
17,-9.401754394957266
18,4.3966200654894769
2,1, 1, 1, 0, 4,30.00,45.00,Tuesday
7,-11.1
8,0.0
9,0.0
10,0.0
11,0.0
12,0.0
13,0.0
14,3.8308664076136678
15,-12.028300815211
16,0.31817641563498
17,-9.439058130228262
18,4.344870789571776
2,1, 1, 1, 0, 4,45.00,60.00,Tuesday
7,-11.1
8,0.0
9,0.0
10,0.0
11,0.0
12,0.0
13,0.0
14,3.781241518037231
15,-12.003700414629036
16,0.2697260519374822
17,-9.47540018356176
18,4.2929969751810159
2,1, 1, 1, 0, 5, 0.00,15.00,Tuesday
7,-10.975
8,0.0
9,0.0
10,0.0
11,0.0
12,0.0
13,0.0
14,3.737322058908637
15,-11.881711081361586
16,0.2626731710295189
17,-9.392021509367567
18,4.242287176173168
2,1, 1, 1, 0, 5,15.00,30.00,Tuesday
7,-10.85
8,0.0
9,0.0
10,0.0
11,0.0
12,0.0
13,0.0
14,3.6936345341618219
15,-11.759795175234395
16,0.2531091010492901
17,-9.300645416668204
18,4.193250895708678
2,1, 1, 1, 0, 5,30.00,45.00,Tuesday
7,-10.725
8,0.0
9,0.0
10,0.0
11,0.0
12,0.0
13,0.0
14,3.6510045892059677
15,-11.637856010638807
16,0.24376857388114105
17,-9.20834166522036
18,4.145645539510068
2,1, 1, 1, 0, 5,45.00,60.00,Tuesday
7,-10.6
8,0.0
9,0.0
10,0.0
11,0.0
12,0.0
13,0.0
14,3.60925467929608
15,-11.515926156864213
16,0.23522490909726913
17,-9.115762788498046
18,4.099071552474226
2,1, 1, 1, 0, 6, 0.00,15.00,Tuesday
7,-10.6
8,0.0
9,0.0
10,0.0
11,0.0
12,0.0
13,0.0
14,3.560420234543214
15,-11.516889198454397
16,0.19453146051284876
17,-9.11771662106645
18,4.0518732224424529
2,1, 1, 1, 0, 6,15.00,30.00,Tuesday
7,-10.6
8,0.0
9,0.0
10,0.0
11,0.0
12,0.0
13,0.0
14,3.5122194603807035
15,-11.517791866586867
16,0.15515164938028648
17,-9.126210255599517
18,4.003319400608056
2,1, 1, 1, 0, 6,30.00,45.00,Tuesday
7,-10.6
8,0.0
9,0.0
10,0.0
11,0.0
12,0.0
13,0.0
14,3.4634706838837987
15,-11.518737169069656
16,0.11599288828494992
17,-9.13532921382955
18,3.9536951898727166
2,1, 1, 1, 0, 6,45.00,60.00,Tuesday
7,-10.6
8,0.0
9,0.0
10,0.0
11,0.0
12,0.0
13,0.0
14,3.4143987895162755
15,-11.519680597603284
16,0.07647659198448764
17,-9.14461750053357
18,3.903528090137826
2,1, 1, 1, 0, 7, 0.00,15.00,Tuesday
7,-10.6
8,0.0
9,0.0
10,0.0
11,0.0
12,0.0
13,0.0
14,3.367325205912915
15,-11.495995381362228
16,0.029226377125837645
17,-9.175556864901353
18,3.853478426007779
2,1, 1, 1, 0, 7,15.00,30.00,Tuesday
7,-10.6
8,0.0
9,0.0
10,0.0
11,0.0
12,0.0
13,0.0
14,3.3201181663030518
15,-11.473539208825584
16,-0.01603988354094099
17,-9.206716325195544
18,3.80389564374552
2,1, 1, 1, 0, 7,30.00,45.00,Tuesday
7,-10.6
8,0.0
9,0.0
10,0.0
11,0.0
12,0.0
13,0.0
14,3.2731882403920817
15,-11.45222465240776
16,-0.06082052389126602
17,-9.237096329748625
18,3.754773040564947
2,1, 1, 1, 0, 7,45.00,60.00,Tuesday
7,-10.6
8,0.0
9,0.0
10,0.0
11,0.0
12,0.0
13,0.0
14,3.226548818784818
15,-11.431983948806288
16,-0.10508348522660072
17,-9.266536757327629
18,3.7060062916223597
2,1, 1, 1, 0, 8, 0.00,15.00,Tuesday
7,-10.45
8,0.0
9,0.0
10,0.0
11,0.0
12,0.0
13,0.0
14,3.1793314369052818
15,-11.383108260019842
16,-0.1209362312051212
17,-9.215341924469726
18,3.6573261296239014
2,1, 1, 1, 0, 8,15.00,30.00,Tuesday
7,-10.3
8,148.01653406385126
9,1.0
10,22.819555959623899
11,1.0
12,22.819555959623899
13,148.01653406385126
14,3.251302230682383
15,-9.709603614396198
16,0.19381758429335606
17,-8.87561695693853
18,3.6264744724548318
2,1, 1, 1, 0, 8,30.00,45.00,Tuesday
7,-10.15
8,726.7626658811118
9,1.0
10,109.75755355442667
11,1.0
12,109.75755355442667
13,726.7626658811118
14,3.6485220722687607
15,-3.3411683641582998
16,1.513714357856827
17,-7.712179150519091
18,3.6628148331990895
2,1, 1, 1, 0, 8,45.00,60.00,Tuesday
7,-10.0
8,1321.5398876204795
9,1.0
10,195.8764694434918
11,1.0
12,195.8764694434918
13,1321.5398876204795
14,4.167755357627814
15,3.1556694640960059
16,2.9677092697929767
17,-6.543997570820352
18,3.7730872544610296
2,1, 1, 1, 0, 9, 0.00,15.00,Tuesday
7,-9.725
8,1914.2684677034104
9,1.0
10,278.97248314719988
11,1.0
12,278.97248314719988
13,1914.2684677034104
14,4.561068604674995
15,8.318453326565985
16,4.473767486617135
17,-5.475304489916766
18,3.9358332775329285
2,1, 1, 1, 0, 9,15.00,30.00,Tuesday
7,-9.45
8,2539.07231392337
9,1.0
10,364.91995730569456
11,1.0
12,364.91995730569456
13,2539.07231392337
14,4.994485963053448
15,13.399694950281186
16,5.937180744595253
17,-4.414198079800599
18,4.142740330123382
2,1, 1, 1, 0, 9,30.00,45.00,Tuesday
7,-9.175
8,2952.440164549791
9,1.0
10,420.35879993239237
11,1.0
12,420.35879993239237
13,2952.440164549791
14,5.299297462192386
15,16.1572689260511
16,6.914414907414937
17,-3.7577028082867516
18,4.373860797571935
2,1, 1, 1, 0, 9,45.00,60.00,Tuesday
7,-8.9
8,3381.5497710085039
9,1.0
10,478.00138373643099
11,1.0
12,478.00138373643099
13,3381.5497710085039
14,5.656584821878968
15,19.152242048913327
16,7.887891781870167
17,-3.0800154984700045
18,4.618817285962289
2,1, 1, 1, 0,10, 0.00,15.00,Tuesday
7,-8.350000000000002
8,3819.7252531008195
9,1.0
10,536.9185644770597
11,1.0
12,536.9185644770597
13,3819.7252531008195
14,5.9597207880928819
15,20.269504341121505
16,8.885599500280819
17,-2.381254495857661
18,4.877614842202764
2,1, 1, 1, 0,10,15.00,30.00,Tuesday
7,-7.800000000000001
8,4273.038382064348
9,1.0
10,598.0969199229219
11,1.0
12,598.0969199229219
13,4273.038382064348
14,6.290909991458408
15,21.522243967294054
16,9.898707931279035
17,-1.6843543368722749
18,5.156723029079026
2,1, 1, 1, 0,10,30.00,45.00,Tuesday
7,-7.25
8,4570.417055982238
9,1.0
10,637.6133352894237
11,1.0
12,637.6133352894237
13,4570.417055982238
14,6.546901174173145
15,21.581728962791659
16,10.626991800903625
17,-1.2001615713888896
18,5.448620388448289
2,1, 1, 1, 0,10,45.00,60.00,Tuesday
7,-6.7
8,4863.415499985103
9,1.0
10,676.6412284283772
11,1.0
12,676.6412284283772
13,4863.415499985103
14,6.827702304551955
15,21.741805840940036
16,11.33048632308919
17,-0.7189549681368135
18,5.741635405413866
2,1, 1, 1, 0,11, 0.00,15.00,Tuesday
7,-6.275
8,5151.0835552534449
9,1.0
10,715.0112779846514
11,1.0
12,715.0112779846514
13,5151.0835552534449
14,7.186044744066897
15,23.839745602630328
16,12.086420265835955
17,-0.00007985153035861003
18,6.0366086953153659
2,1, 1, 1, 0,11,15.00,30.00,Tuesday
7,-5.85
8,5431.980261502556
9,1.0
10,752.5077794605232
11,1.0
12,752.5077794605232
13,5431.980261502556
14,7.5343570698261
15,25.77508275515036
16,12.835058097582419
17,0.6998559760520493
18,6.156738133450075
2,1, 1, 1, 0,11,30.00,45.00,Tuesday
7,-5.425
8,5348.498206243459
9,1.0
10,742.5988714321785
11,1.0
12,742.5988714321785
13,5348.498206243459
14,7.697874168382114
15,25.62590680219484
16,12.971670000351424
17,0.9834254130948921
18,6.381093526867727
2,1, 1, 1, 0,11,45.00,60.00,Tuesday
7,-5.0
8,5229.212085323757
9,1.0
10,727.8169025450712
11,1.0
12,727.8169025450712
13,5229.212085323757
14,7.8302583528226539
15,25.395991804240354
16,12.993801644243434
17,1.229314427178224
18,6.676275038403937
2,1, 1, 1, 0,12, 0.00,15.00,Tuesday
7,-4.575
8,5024.076099878734
9,1.0
10,700.3759009170325
11,1.0
12,700.3759009170325
13,5024.076099878734
14,8.002858573225425
15,24.65559590947911
16,12.90926542584748
17,1.4214598207212248
18,6.962183041869095
2,1, 1, 1, 0,12,15.00,30.00,Tuesday
7,-4.15
8,4871.941229315544
9,1.0
10,681.6705029034473
11,1.0
12,681.6705029034473
13,4871.941229315544
14,8.195261507753124
15,24.325536300944685
16,12.936580531422692
17,1.6867411053144679
18,7.209449023479598
2,1, 1, 1, 0,12,30.00,45.00,Tuesday
7,-3.7249999999999998
8,4277.1586393229749
9,1.0
10,602.01865277251
11,1.0
12,602.01865277251
13,4277.1586393229749
14,8.139612998306053
15,21.297513857139419
16,12.20521879306682
17,1.4536752740185648
18,7.3886206514553349
2,1, 1, 1, 0,12,45.00,60.00,Tuesday
7,-3.3
8,3493.2091881935705
9,1.0
10,493.55004396206007
11,1.0
12,493.55004396206007
13,3493.2091881935705
14,7.961025459266849
15,17.11933499824948
16,11.011621746280753
17,0.9602684726101529
18,7.479282163631292
2,1, 1, 1, 0,13, 0.00,15.00,Tuesday
7,-3.0249999999999996
8,2884.3295946875089
9,1.0
10,412.335026418112
11,1.0
12,412.335026418112
13,2884.3295946875089
14,7.835033717750236
15,14.275340927368575
16,10.056220572204268
17,0.6207994358866813
18,7.502251187909957
2,1, 1, 1, 0,13,15.00,30.00,Tuesday
7,-2.75
8,2112.5058529628624
9,1.0
10,305.94037763660148
11,1.0
12,305.94037763660148
13,2112.5058529628624
14,7.53921798807662
15,10.102493252846618
16,8.722033189573836
17,0.046275844556362247
18,7.469815483410025
2,1, 1, 1, 0,13,30.00,45.00,Tuesday
7,-2.475
8,1928.6430638732348
9,1.0
10,281.0763483922329
11,1.0
12,281.0763483922329
13,1928.6430638732348
14,7.515511995197331
15,9.590304438726204
16,8.415552845579953
17,0.15179080409421887
18,7.421129831991021
2,1, 1, 1, 0,13,45.00,60.00,Tuesday
7,-2.2
8,1748.610390799326
9,1.0
10,256.7721209415886
11,1.0
12,256.7721209415886
13,1748.610390799326
14,7.482534341376483
15,8.983344964431146
16,8.176466167264266
17,0.2816497505816642
18,7.379801456307951
2,1, 1, 1, 0,14, 0.00,15.00,Tuesday
7,-1.9250000000000003
8,1428.436847472322
9,1.0
10,210.73276284570657
11,1.0
12,210.73276284570657
13,1428.436847472322
14,7.347413831960991
15,7.436125466120932
16,7.605105027893387
17,0.18663994145538255
18,7.3427186959151069
2,1, 1, 1, 0,14,15.00,30.00,Tuesday
7,-1.6500000000000002
8,1268.9130128286502
9,1.0
10,189.38488290342594
11,1.0
12,189.38488290342594
13,1268.9130128286502
14,7.313383439392568
15,7.028946027248974
16,7.33798714330544
17,0.293378352374134
18,7.310021541429325
2,1, 1, 1, 0,14,30.00,45.00,Tuesday
7,-1.375
8,1210.183907816182
9,1.0
10,179.3940297802914
11,1.0
12,179.3940297802914
13,1210.183907816182
14,7.308647290308114
15,7.153804315450387
16,7.292169075768129
17,0.5223431062603368
18,7.2834232326315508
2,1, 1, 1, 0,14,45.00,60.00,Tuesday
7,-1.1
8,1150.7838549837416
9,1.0
10,169.43349014176136
11,1.0
12,169.43349014176136
13,1150.7838549837416
14,7.300239782174801
15,7.252767200424168
16,7.239736379376268
17,0.7488477482546614
18,7.26252828402403
2,1, 1, 1, 0,15, 0.00,15.00,Tuesday
7,-1.1
8,1211.2722036175495
9,1.0
10,178.15692317953907
11,1.0
12,178.15692317953907
13,1211.2722036175495
14,7.359396608752235
15,8.070061148244527
16,7.394828022951401
17,0.8920880957450663
18,7.2500741847474059
2,1, 1, 1, 0,15,15.00,30.00,Tuesday
7,-1.1
8,1137.956969237758
9,1.0
10,166.40516310952945
11,1.0
12,166.40516310952945
13,1137.956969237758
14,7.30992032902573
15,7.707366042465104
16,7.238660687913807
17,0.8314925982994055
18,7.2409498863802999
2,1, 1, 1, 0,15,30.00,45.00,Tuesday
7,-1.1
8,959.5048700077449
9,1.0
10,140.8967369711617
11,1.0
12,140.8967369711617
13,959.5048700077449
14,7.1957200582999569
15,6.500781983768671
16,6.827161782957887
17,0.5942605943499757
18,7.225188271691724
2,1, 1, 1, 0,15,45.00,60.00,Tuesday
7,-1.1
8,789.5943100591451
9,1.0
10,116.57355796743004
11,1.0
12,116.57355796743004
13,789.5943100591451
14,7.080806915285889
15,5.290956348360655
16,6.429583330870628
17,0.35752870205021738
18,7.192134477459864
2,1, 1, 1, 0,16, 0.00,15.00,Tuesday
7,-1.1
8,626.6670946065104
9,1.0
10,93.14939272689483
11,1.0
12,93.14939272689483
13,626.6670946065104
14,6.981083700662577
15,4.241277007561809
16,6.079944076710717
17,0.19723610485425525
18,7.140161459121971
2,1, 1, 1, 0,16,15.00,30.00,Tuesday
7,-1.1
8,389.03606784116905
9,1.0
10,57.94047897402063
11,1.0
12,57.94047897402063
13,389.03606784116905
14,6.791285608784268
15,2.116344506574068
16,5.544441376076293
17,-0.11844639552634817
18,7.062366045684349
2,1, 1, 1, 0,16,30.00,45.00,Tuesday
7,-1.1
8,301.6300334628658
9,1.0
10,45.38251793443488
11,1.0
12,45.38251793443488
13,301.6300334628658
14,6.717646040139536
15,1.505338531871908
16,5.320067626485923
17,-0.18103953731758794
18,6.969599278832973
2,1, 1, 1, 0,16,45.00,60.00,Tuesday
7,-1.1
8,210.55774644167082
9,1.0
10,32.02625108222755
11,1.0
12,32.02625108222755
13,210.55774644167082
14,6.604698930255539
15,0.6412209381054105
16,5.104730827332901
17,-0.24927433048662807
18,6.876403019673075
2,1, 1, 1, 0,17, 0.00,15.00,Tuesday
7,-1.1
8,115.49062901599248
9,1.0
10,17.762198626050539
11,1.0
12,17.762198626050539
13,115.49062901599248
14,6.466357212180805
15,-0.6110132056091728
16,4.830966529401394
17,-0.42841562665313406
18,6.7835999706004979
2,1, 1, 1, 0,17,15.00,30.00,Tuesday
7,-1.1
8,0.0
9,0.0
10,0.0
11,0.0
12,0.0
13,0.0
14,6.278585633829865
15,-2.448725733677477
16,4.482319293192859
17,-0.7188420237648074
18,6.679926763392133
2,1, 1, 1, 0,17,30.00,45.00,Tuesday
7,-1.1
8,0.0
9,0.0
10,0.0
11,0.0
12,0.0
13,0.0
14,6.223341852085939
15,-2.5849544470764926
16,4.400731546882184
17,-0.7172317033100057
18,6.579273902885012
2,1, 1, 1, 0,17,45.00,60.00,Tuesday
7,-1.1
8,0.0
9,0.0
10,0.0
11,0.0
12,0.0
13,0.0
14,6.152807183182744
15,-2.776692153275826
16,4.358021454743152
17,-0.6982281198503415
18,6.49470381273424
2,1, 1, 1, 0,18, 0.00,15.00,Tuesday
7,-1.25
8,0.0
9,0.0
10,0.0
11,0.0
12,0.0
13,0.0
14,6.093681137505302
15,-2.9244333370944015
16,4.26733929752686
17,-0.8346105049884613
18,6.426919200803766
2,1, 1, 1, 0,18,15.00,30.00,Tuesday
7,-1.4
8,0.0
9,0.0
10,0.0
11,0.0
12,0.0
13,0.0
14,6.039738157294179
15,-3.0768581164454549
16,4.19072042522032
17,-0.9631229710649905
18,6.370859307659389
2,1, 1, 1, 0,18,30.00,45.00,Tuesday
7,-1.5499999999999999
8,0.0
9,0.0
10,0.0
11,0.0
12,0.0
13,0.0
14,5.989962174090515
15,-3.2288063901641195
16,4.118315114336156
17,-1.0906914181715593
18,6.321292699938324
2,1, 1, 1, 0,18,45.00,60.00,Tuesday
7,-1.7
8,0.0
9,0.0
10,0.0
11,0.0
12,0.0
13,0.0
14,5.9422029645346499
15,-3.3809247986151846
16,4.048708821177229
17,-1.2174737649179406
18,6.274884776633626
2,1, 1, 1, 0,19, 0.00,15.00,Tuesday
7,-1.825
8,0.0
9,0.0
10,0.0
11,0.0
12,0.0
13,0.0
14,5.919599682181001
15,-3.232519470213757
16,3.971641664900858
17,-1.364472741840416
18,6.233409446987571
2,1, 1, 1, 0,19,15.00,30.00,Tuesday
7,-1.9500000000000002
8,0.0
9,0.0
10,0.0
11,0.0
12,0.0
13,0.0
14,5.8959314247390879
15,-3.1655886877110195
16,3.907524382457723
17,-1.5041404823989524
18,6.198633077257177
2,1, 1, 1, 0,19,30.00,45.00,Tuesday
7,-2.075
8,0.0
9,0.0
10,0.0
11,0.0
12,0.0
13,0.0
14,5.867674754689255
15,-3.239356876058497
16,3.8568717879460339
17,-1.616616067005225
18,6.169175524714109
2,1, 1, 1, 0,19,45.00,60.00,Tuesday
7,-2.2
8,0.0
9,0.0
10,0.0
11,0.0
12,0.0
13,0.0
14,5.842313019451408
15,-3.217001522853419
16,3.797070308488969
17,-1.7520873424817865
18,6.141996445357418
2,1, 1, 1, 0,20, 0.00,15.00,Tuesday
7,-1.9250000000000003
8,0.0
9,0.0
10,0.0
11,0.0
12,0.0
13,0.0
14,5.8329579949745808
15,-2.9158052485845897
16,3.8463956375878185
17,-1.5514219393081704
18,6.117653205710975
2,1, 1, 1, 0,20,15.00,30.00,Tuesday
7,-1.6500000000000002
8,0.0
9,0.0
10,0.0
11,0.0
12,0.0
13,0.0
14,5.825164597536827
15,-2.6175955831944117
16,3.8937375725082576
17,-1.3385555128411398
18,6.0968071256881
2,1, 1, 1, 0,20,30.00,45.00,Tuesday
7,-1.375
8,0.0
9,0.0
10,0.0
11,0.0
12,0.0
13,0.0
14,5.818178576369624
15,-2.3207116797250175
16,3.9431288499324639
17,-1.1230562379188314
18,6.079012735589867
2,1, 1, 1, 0,20,45.00,60.00,Tuesday
7,-1.1
8,0.0
9,0.0
10,0.0
11,0.0
12,0.0
13,0.0
14,5.812861547663143
15,-2.0250481806264806
16,3.994262956914781
17,-0.9058140463747009
18,6.063451390333428
2,1, 1, 1, 0,21, 0.00,15.00,Tuesday
7,-1.25
8,0.0
9,0.0
10,0.0
11,0.0
12,0.0
13,0.0
14,5.765234563903722
15,-2.3063146068087456
16,3.951825630062615
17,-0.9869338220025838
18,6.0432205383894959
2,1, 1, 1, 0,21,15.00,30.00,Tuesday
7,-1.4
8,0.0
9,0.0
10,0.0
11,0.0
12,0.0
13,0.0
14,5.719146857027646
15,-2.5229273873904689
16,3.8968524887367268
17,-1.086484446294321
18,6.013615915192745
2,1, 1, 1, 0,21,30.00,45.00,Tuesday
7,-1.5499999999999999
8,0.0
9,0.0
10,0.0
11,0.0
12,0.0
13,0.0
14,5.659567583052536
15,-2.8674452993937717
16,3.847390868168418
17,-1.1633128138593066
18,5.973834010007452
2,1, 1, 1, 0,21,45.00,60.00,Tuesday
7,-1.7
8,0.0
9,0.0
10,0.0
11,0.0
12,0.0
13,0.0
14,5.59474370126291
15,-3.319574870531607
16,3.799500685361238
17,-1.2145122455029878
18,5.926161124576902
2,1, 1, 1, 0,22, 0.00,15.00,Tuesday
7,-1.5499999999999999
8,0.0
9,0.0
10,0.0
11,0.0
12,0.0
13,0.0
14,5.598752429187
15,-2.8317941281183258
16,3.773627110199584
17,-1.1805594178798629
18,5.884063432707206
2,1, 1, 1, 0,22,15.00,30.00,Tuesday
7,-1.4
8,0.0
9,0.0
10,0.0
11,0.0
12,0.0
13,0.0
14,5.5929049573457869
15,-2.5015301571819927
16,3.7822031248043119
17,-1.109765468510318
18,5.85486427804835
2,1, 1, 1, 0,22,30.00,45.00,Tuesday
7,-1.25
8,0.0
9,0.0
10,0.0
11,0.0
12,0.0
13,0.0
14,5.585828313877795
15,-2.2813801353087435
16,3.8003045404525439
17,-1.01346167143015
18,5.836385359968668
2,1, 1, 1, 0,22,45.00,60.00,Tuesday
7,-1.1
8,0.0
9,0.0
10,0.0
11,0.0
12,0.0
13,0.0
14,5.582701047589559
15,-1.9987431946546915
16,3.817737838399921
17,-0.9216583033178836
18,5.82340159815053
2,1, 1, 1, 0,23, 0.00,15.00,Tuesday
7,-1.25
8,0.0
9,0.0
10,0.0
11,0.0
12,0.0
13,0.0
14,5.5344497773785898
15,-2.3021535408182998
16,3.7196026098660015
17,-1.1909794232519744
18,5.805290856896696
2,1, 1, 1, 0,23,15.00,30.00,Tuesday
7,-1.4
8,0.0
9,0.0
10,0.0
11,0.0
12,0.0
13,0.0
14,5.489135406379049
15,-2.60675491355536
16,3.6104644427311429
17,-1.477920753761964
18,5.7768454978147709
2,1, 1, 1, 0,23,30.00,45.00,Tuesday
7,-1.5499999999999999
8,0.0
9,0.0
10,0.0
11,0.0
12,0.0
13,0.0
14,5.439121708368627
15,-2.912027138419937
16,3.499555523169306
17,-1.766918928699397
18,5.7392028044161729
2,1, 1, 1, 0,23,45.00,60.00,Tuesday
7,-1.7
8,0.0
9,0.0
10,0.0
11,0.0
12,0.0
13,0.0
14,5.385182779255269
15,-3.217641305726153
16,3.3849149288793116
17,-2.0568356941496406
18,5.695377891593284
2,1, 1, 1, 0,24, 0.00,15.00,Tuesday
7,-1.7
8,0.0
9,0.0
10,0.0
11,0.0
12,0.0
13,0.0
14,5.347560444135821
15,-3.2716744621024489
16,3.335688529471554
17,-2.1201885545965526
18,5.651062855445742
2,1, 1, 1, 0,24,15.00,30.00,Tuesday
7,-1.7
8,0.0
9,0.0
10,0.0
11,0.0
12,0.0
13,0.0
14,5.307783965921246
15,-3.3263394268846189
16,3.290077239233028
17,-2.1812068525561019
18,5.609293463644308
2,1, 1, 1, 0,24,30.00,45.00,Tuesday
7,-1.7
8,0.0
9,0.0
10,0.0
11,0.0
12,0.0
13,0.0
14,5.269066934157237
15,-3.3808951555139008
16,3.244292763575004
17,-2.24217035392428
18,5.570072281451836
2,1, 1, 1, 0,24,45.00,60.00,Tuesday
7,-1.7
8,0.0
9,0.0
10,0.0
11,0.0
12,0.0
13,0.0
14,5.231159032065331
15,-3.4354529688688304
16,3.19939648419529
17,-2.302803029678273
18,5.532377034337142
End of Data
 Number of Records Written=        1152
