Program Version,EnergyPlus, Version 9.5.0-de239b2e5f, YMD=2023.02.16 21:09
1,5,Environment Title[],Latitude[deg],Longitude[deg],Time Zone[],Elevation[m]
2,8,Day of Simulation[],Month[],Day of Month[],DST Indicator[1=yes 0=no],Hour[],StartMinute[],EndMinute[],DayType
3,5,Cumulative Day of Simulation[],Month[],Day of Month[],DST Indicator[1=yes 0=no],DayType  ! When Daily Report Variables Requested
4,2,Cumulative Days of Simulation[],Month[]  ! When Monthly Report Variables Requested
5,1,Cumulative Days of Simulation[] ! When Run Period Report Variables Requested
6,1,Calendar Year of Simulation[] ! When Annual Report Variables Requested
7,1,Environment,Site Outdoor Air Drybulb Temperature [C] !TimeStep
8,1,ZONE ONE,Zone Windows Total Transmitted Solar Radiation Rate [W] !TimeStep
9,1,ZN001:WALL001,Surface Outside Face Sunlit Fraction [] !TimeStep
10,1,ZN001:WALL001,Surface Outside Face Incident Solar Radiation Rate per Area [W/m2] !TimeStep
11,1,ZN001:WALL001:WIN001,Surface Outside Face Sunlit Fraction [] !TimeStep
12,1,ZN001:WALL001:WIN001,Surface Outside Face Incident Solar Radiation Rate per Area [W/m2] !TimeStep
13,1,ZN001:WALL001:WIN001,Surface Window Transmitted Solar Radiation Rate [W] !TimeStep
14,1,ZN001:WALL001,Surface Inside Face Temperature [C] !TimeStep
15,1,ZN001:WALL001,Surface Outside Face Temperature [C] !TimeStep
16,1,ZN001:WALL001:WIN001,Surface Inside Face Temperature [C] !TimeStep
17,1,ZN001:WALL001:WIN001,Surface Outside Face Temperature [C] !TimeStep
18,1,ZONE ONE,Zone Mean Air Temperature [C] !TimeStep
End of Data Dictionary
1,RUN PERIOD 1,  41.98, -87.92,  -6.00, 201.00
2,1, 1, 1, 0, 1, 0.00,15.00,Tuesday
7,-4.324999999999999
8,0.0
9,0.0
10,0.0
11,0.0
12,0.0
13,0.0
14,7.369884670461101
15,-5.869749290894856
16,4.966842617344241
17,-4.266703672741642
18,7.868639112909706
2,1, 1, 1, 0, 1,15.00,30.00,Tuesday
7,-6.949999999999999
8,0.0
9,0.0
10,0.0
11,0.0
12,0.0
13,0.0
14,7.186305120164643
15,-8.336902057481423
16,4.3922185227006029
17,-6.375717654280038
18,7.7672305711932669
2,1, 1, 1, 0, 1,30.00,45.00,Tuesday
7,-9.575
8,0.0
9,0.0
10,0.0
11,0.0
12,0.0
13,0.0
14,6.982866169731532
15,-10.811980018375117
16,3.811003142901427
17,-8.491021172263004
18,7.634794142696443
2,1, 1, 1, 0, 1,45.00,60.00,Tuesday
7,-12.2
8,0.0
9,0.0
10,0.0
11,0.0
12,0.0
13,0.0
14,6.763785773181984
15,-13.29368993233175
16,3.2147236161174534
17,-10.613846885315866
18,7.480992207772846
2,1, 1, 1, 0, 2, 0.00,15.00,Tuesday
7,-12.075
8,0.0
9,0.0
10,0.0
11,0.0
12,0.0
13,0.0
14,6.6916599321801979
15,-13.09444866951951
16,3.138213285898587
17,-10.451416035649459
18,7.342231195576244
2,1, 1, 1, 0, 2,15.00,30.00,Tuesday
7,-11.95
8,0.0
9,0.0
10,0.0
11,0.0
12,0.0
13,0.0
14,6.606305401029044
15,-12.917460531342233
16,3.0979148564171057
17,-10.304692116515867
18,7.2350142105550809
2,1, 1, 1, 0, 2,30.00,45.00,Tuesday
7,-11.825
8,0.0
9,0.0
10,0.0
11,0.0
12,0.0
13,0.0
14,6.5379384366206259
15,-12.739332084467373
16,3.0632303622180645
17,-10.157617270546894
18,7.153754601871074
2,1, 1, 1, 0, 2,45.00,60.00,Tuesday
7,-11.7
8,0.0
9,0.0
10,0.0
11,0.0
12,0.0
13,0.0
14,6.480540188019415
15,-12.561289262549569
16,3.0411829197666409
17,-10.00810683148626
18,7.087486373668493
2,1, 1, 1, 0, 3, 0.00,15.00,Tuesday
7,-11.549999999999999
8,0.0
9,0.0
10,0.0
11,0.0
12,0.0
13,0.0
14,6.4247276529361969
15,-12.43433562097681
16,3.0264032456101406
17,-9.858743405205587
18,7.0274374909289289
2,1, 1, 1, 0, 3,15.00,30.00,Tuesday
7,-11.399999999999999
8,0.0
9,0.0
10,0.0
11,0.0
12,0.0
13,0.0
14,6.371961729642434
15,-12.308712717029169
16,3.0134332856511607
17,-9.709192434429838
18,6.969384128986161
2,1, 1, 1, 0, 3,30.00,45.00,Tuesday
7,-11.25
8,0.0
9,0.0
10,0.0
11,0.0
12,0.0
13,0.0
14,6.3200332092458579
15,-12.184566927867186
16,3.005684223466801
17,-9.56867281793177
18,6.912239058673084
2,1, 1, 1, 0, 3,45.00,60.00,Tuesday
7,-11.1
8,0.0
9,0.0
10,0.0
11,0.0
12,0.0
13,0.0
14,6.268501862518969
15,-12.061951093775879
16,2.9917506684944898
17,-9.409615420005708
18,6.855815858087692
2,1, 1, 1, 0, 4, 0.00,15.00,Tuesday
7,-11.1
8,0.0
9,0.0
10,0.0
11,0.0
12,0.0
13,0.0
14,6.213276825905229
15,-12.0347828951908
16,2.934805254431126
17,-9.448289857003204
18,6.79929540545491
2,1, 1, 1, 0, 4,15.00,30.00,Tuesday
7,-11.1
8,0.0
9,0.0
10,0.0
11,0.0
12,0.0
13,0.0
14,6.158440382728351
15,-12.008656281087987
16,2.8808506848123445
17,-9.485784581322719
18,6.742358055796327
2,1, 1, 1, 0, 4,30.00,45.00,Tuesday
7,-11.1
8,0.0
9,0.0
10,0.0
11,0.0
12,0.0
13,0.0
14,6.1034370007443139
15,-11.98400360329857
16,2.8272421665063804
17,-9.522260025981439
18,6.685127725603872
2,1, 1, 1, 0, 4,45.00,60.00,Tuesday
7,-11.1
8,0.0
9,0.0
10,0.0
11,0.0
12,0.0
13,0.0
14,6.048376237808256
15,-11.960696603713835
16,2.7738252376208267
17,-9.557661447643114
18,6.6278211947700609
2,1, 1, 1, 0, 5, 0.00,15.00,Tuesday
7,-10.975
8,0.0
9,0.0
10,0.0
11,0.0
12,0.0
13,0.0
14,5.998888662075106
15,-11.838846180171926
16,2.7551147991457016
17,-9.470483482706073
18,6.5716313645772159
2,1, 1, 1, 0, 5,15.00,30.00,Tuesday
7,-10.85
8,0.0
9,0.0
10,0.0
11,0.0
12,0.0
13,0.0
14,5.949622629960051
15,-11.717058417242214
16,2.734431988420056
17,-9.375232063689623
18,6.517033242682789
2,1, 1, 1, 0, 5,30.00,45.00,Tuesday
7,-10.725
8,0.0
9,0.0
10,0.0
11,0.0
12,0.0
13,0.0
14,5.901388453867942
15,-11.595247973252646
16,2.7140758831798168
17,-9.27917364422899
18,6.463796472291115
2,1, 1, 1, 0, 5,45.00,60.00,Tuesday
7,-10.6
8,0.0
9,0.0
10,0.0
11,0.0
12,0.0
13,0.0
14,5.8540107201602729
15,-11.47344699668552
16,2.694538874165005
17,-9.182896211298385
18,6.411546650247263
2,1, 1, 1, 0, 6, 0.00,15.00,Tuesday
7,-10.6
8,0.0
9,0.0
10,0.0
11,0.0
12,0.0
13,0.0
14,5.799795309679104
15,-11.47449532600941
16,2.6479285532803944
17,-9.184375760104956
18,6.35870223422057
2,1, 1, 1, 0, 6,15.00,30.00,Tuesday
7,-10.6
8,0.0
9,0.0
10,0.0
11,0.0
12,0.0
13,0.0
14,5.746218727439233
15,-11.47549925563634
16,2.602226871366952
17,-9.192471006268932
18,6.304570955539889
2,1, 1, 1, 0, 6,30.00,45.00,Tuesday
7,-10.6
8,0.0
9,0.0
10,0.0
11,0.0
12,0.0
13,0.0
14,5.6921188642488789
15,-11.476544788338832
16,2.5566962288207835
17,-9.201117979103288
18,6.249440658798745
2,1, 1, 1, 0, 6,45.00,60.00,Tuesday
7,-10.6
8,0.0
9,0.0
10,0.0
11,0.0
12,0.0
13,0.0
14,5.637726498620008
15,-11.477587834715266
16,2.5108113645183609
17,-9.20989797549396
18,6.193824195785022
2,1, 1, 1, 0, 7, 0.00,15.00,Tuesday
7,-10.6
8,0.0
9,0.0
10,0.0
11,0.0
12,0.0
13,0.0
14,5.585262602037735
15,-11.45510854864179
16,2.4586350547583608
17,-9.240102206627967
18,6.138380755121707
2,1, 1, 1, 0, 7,15.00,30.00,Tuesday
7,-10.6
8,0.0
9,0.0
10,0.0
11,0.0
12,0.0
13,0.0
14,5.532704281804841
15,-11.433794512725508
16,2.4083352961430934
17,-9.270528227737146
18,6.08344724750359
2,1, 1, 1, 0, 7,30.00,45.00,Tuesday
7,-10.6
8,0.0
9,0.0
10,0.0
11,0.0
12,0.0
13,0.0
14,5.480454565179228
15,-11.413566816502497
16,2.358478410198245
17,-9.30013912563254
18,6.029000907608358
2,1, 1, 1, 0, 7,45.00,60.00,Tuesday
7,-10.6
8,0.0
9,0.0
10,0.0
11,0.0
12,0.0
13,0.0
14,5.428515624980688
15,-11.394360939130945
16,2.309122456938667
17,-9.328801789206523
18,5.974926676635013
2,1, 1, 1, 0, 8, 0.00,15.00,Tuesday
7,-10.45
8,0.0
9,0.0
10,0.0
11,0.0
12,0.0
13,0.0
14,5.376081122821363
15,-11.344628068669543
16,2.283326809427649
17,-9.276126519204354
18,5.9208954572227319
2,1, 1, 1, 0, 8,15.00,30.00,Tuesday
7,-10.3
8,181.53280301124716
9,1.0
10,22.819555959623899
11,1.0
12,22.819555959623899
13,181.53280301124716
14,5.447966849347971
15,-9.670777788400369
16,2.5653260233636958
17,-8.95677922679215
18,5.886129351408043
2,1, 1, 1, 0, 8,30.00,45.00,Tuesday
7,-10.15
8,891.3278823594253
9,1.0
10,109.75755355442667
11,1.0
12,109.75755355442667
13,891.3278823594253
14,5.8592385937023929
15,-3.2968594942494384
16,3.78360589145052
17,-7.882695693523374
18,5.924396676498079
2,1, 1, 1, 0, 8,45.00,60.00,Tuesday
7,-10.0
8,1620.7840671873826
9,1.0
10,195.8764694434918
11,1.0
12,195.8764694434918
13,1620.7840671873826
14,6.376669833070304
15,3.178045162695655
16,5.133620489290024
17,-6.804246076072104
18,6.043415865408632
2,1, 1, 1, 0, 9, 0.00,15.00,Tuesday
7,-9.725
8,2347.727724178928
9,1.0
10,278.97248314719988
11,1.0
12,278.97248314719988
13,2347.727724178928
14,6.832492825351231
15,8.359767898931099
16,6.553620159374418
17,-5.843801689425845
18,6.218509261596286
2,1, 1, 1, 0, 9,15.00,30.00,Tuesday
7,-9.45
8,3114.0096416305138
9,1.0
10,364.91995730569456
11,1.0
12,364.91995730569456
13,3114.0096416305138
14,7.292226741814222
15,13.434444541404876
16,7.943884423616112
17,-4.876978672976179
18,6.440341859220078
2,1, 1, 1, 0, 9,30.00,45.00,Tuesday
7,-9.175
8,3620.9788466187658
9,1.0
10,420.35879993239237
11,1.0
12,420.35879993239237
13,3620.9788466187658
14,7.6223190543300449
15,16.19146986551781
16,8.882244240909472
17,-4.279984103057245
18,6.688399404994053
2,1, 1, 1, 0, 9,45.00,60.00,Tuesday
7,-8.9
8,4147.254307348187
9,1.0
10,478.00138373643099
11,1.0
12,478.00138373643099
13,4147.254307348187
14,8.008521674087401
15,19.185722311072796
16,9.81169146048785
17,-3.6623403153952269
18,6.951809641195572
2,1, 1, 1, 0,10, 0.00,15.00,Tuesday
7,-8.350000000000002
8,4684.648484144343
9,1.0
10,536.9185644770597
11,1.0
12,536.9185644770597
13,4684.648484144343
14,8.343619465756806
15,20.300519492090087
16,10.775797105892025
17,-2.9903932627885867
18,7.230593673696727
2,1, 1, 1, 0,10,15.00,30.00,Tuesday
7,-7.800000000000001
8,5240.608015714945
9,1.0
10,598.0969199229219
11,1.0
12,598.0969199229219
13,5240.608015714945
14,8.709284701090251
15,21.55145575101457
16,11.756822413811677
17,-2.3186169236245748
18,7.530216182405173
2,1, 1, 1, 0,10,30.00,45.00,Tuesday
7,-7.25
8,5605.323921093528
9,1.0
10,637.6133352894237
11,1.0
12,637.6133352894237
13,5605.323921093528
14,8.996407701203259
15,21.60922226170052
16,12.47780033154578
17,-1.8374485656779598
18,7.656778750165218
2,1, 1, 1, 0,10,45.00,60.00,Tuesday
7,-6.7
8,5964.667754902514
9,1.0
10,676.6412284283772
11,1.0
12,676.6412284283772
13,5964.667754902514
14,9.261825357249816
15,21.76661416725226
16,13.145638943461336
17,-1.3619362252429142
18,7.906844108391052
2,1, 1, 1, 0,11, 0.00,15.00,Tuesday
7,-6.275
8,6317.474208179253
9,1.0
10,715.0112779846514
11,1.0
12,715.0112779846514
13,6317.474208179253
14,9.574922146180589
15,23.86356883152446
16,13.818640159489974
17,-0.6786236949552063
18,8.100156144052083
2,1, 1, 1, 0,11,15.00,30.00,Tuesday
7,-5.85
8,6661.976035385195
9,1.0
10,752.5077794605232
11,1.0
12,752.5077794605232
13,6661.976035385195
14,9.956915125809355
15,25.800463367744308
16,14.520325177372684
17,-0.010079905001305179
18,8.553587400926077
2,1, 1, 1, 0,11,30.00,45.00,Tuesday
7,-5.425
8,6559.590639127897
9,1.0
10,742.5988714321785
11,1.0
12,742.5988714321785
13,6559.590639127897
14,10.253155262107974
15,25.654138612313419
16,14.746055804983599
17,0.2994701251460583
18,8.955943338626647
2,1, 1, 1, 0,11,45.00,60.00,Tuesday
7,-5.0
8,6413.2938485147019
9,1.0
10,727.8169025450712
11,1.0
12,727.8169025450712
13,6413.2938485147019
14,10.51062041319089
15,25.42525874912475
16,14.887380092514036
17,0.5803492872801712
18,9.298805416639685
2,1, 1, 1, 0,12, 0.00,15.00,Tuesday
7,-4.575
8,6161.707695169875
9,1.0
10,700.3759009170325
11,1.0
12,700.3759009170325
13,6161.707695169875
14,10.693886781017599
15,24.68324714912809
16,14.869062128695532
17,0.8084340782478989
18,9.588782908715368
2,1, 1, 1, 0,12,15.00,30.00,Tuesday
7,-4.15
8,5975.124016097185
9,1.0
10,681.6705029034473
11,1.0
12,681.6705029034473
13,5975.124016097185
14,10.861700218539414
15,24.352502389645964
16,14.899058267258625
17,1.0969503994704156
18,9.840232140316406
2,1, 1, 1, 0,12,30.00,45.00,Tuesday
7,-3.7249999999999998
8,5245.661247450245
9,1.0
10,602.01865277251
11,1.0
12,602.01865277251
13,5245.661247450245
14,10.807839002203993
15,21.325276328273
16,14.243467498036239
17,0.9435156446169799
18,10.03020791133061
2,1, 1, 1, 0,12,45.00,60.00,Tuesday
7,-3.3
8,4284.197434080928
9,1.0
10,493.55004396206007
11,1.0
12,493.55004396206007
13,4284.197434080928
14,10.61631536570154
15,17.14726143349018
16,13.146704786732187
17,0.5544389221738015
18,10.13160558870235
2,1, 1, 1, 0,13, 0.00,15.00,Tuesday
7,-3.0249999999999996
8,3537.445593115435
9,1.0
10,412.335026418112
11,1.0
12,412.335026418112
13,3537.445593115435
14,10.484553571161847
15,14.303917846768555
16,12.259891015040239
17,0.2980530761876139
18,10.162129442104537
2,1, 1, 1, 0,13,15.00,30.00,Tuesday
7,-2.75
8,2590.853186043415
9,1.0
10,305.94037763660148
11,1.0
12,305.94037763660148
13,2590.853186043415
14,10.167146239597852
15,10.131292938092815
16,11.015151341462854
17,-0.17076810004516575
18,10.132491951585044
2,1, 1, 1, 0,13,30.00,45.00,Tuesday
7,-2.475
8,2365.357246120335
9,1.0
10,281.0763483922329
11,1.0
12,281.0763483922329
13,2365.357246120335
14,10.138683643135878
15,9.61939577881004
16,10.702812596657737
17,-0.03428931650341838
18,10.084333047342419
2,1, 1, 1, 0,13,45.00,60.00,Tuesday
7,-2.2
8,2144.5586982865008
9,1.0
10,256.7721209415886
11,1.0
12,256.7721209415886
13,2144.5586982865008
14,10.103022009359039
15,9.013244830695705
16,10.472499526652087
17,0.1268612399524045
18,10.043116830952743
2,1, 1, 1, 0,14, 0.00,15.00,Tuesday
7,-1.9250000000000003
8,1751.8863449049696
9,1.0
10,210.73276284570657
11,1.0
12,210.73276284570657
13,1751.8863449049696
14,9.950188653618975
15,7.466314303348188
16,9.909154681984319
17,0.07721722995802338
18,10.006331988383416
2,1, 1, 1, 0,14,15.00,30.00,Tuesday
7,-1.6500000000000002
8,1556.2405744298179
9,1.0
10,189.38488290342594
11,1.0
12,189.38488290342594
13,1556.2405744298179
14,9.914576632514687
15,7.063866427068156
16,9.650576290891081
17,0.21494867466520874
18,9.973148321988923
2,1, 1, 1, 0,14,30.00,45.00,Tuesday
7,-1.375
8,1484.2130869693643
9,1.0
10,179.3940297802914
11,1.0
12,179.3940297802914
13,1484.2130869693643
14,9.903062661963784
15,7.187572416473179
16,9.595070677299816
17,0.4569173387473029
18,9.944830614654962
2,1, 1, 1, 0,14,45.00,60.00,Tuesday
7,-1.1
8,1411.362724961817
9,1.0
10,169.43349014176136
11,1.0
12,169.43349014176136
13,1411.362724961817
14,9.887739755940676
15,7.287762005904804
16,9.531909568171955
17,0.6975433671525479
18,9.920866504633441
2,1, 1, 1, 0,15, 0.00,15.00,Tuesday
7,-1.1
8,1485.5478120977
9,1.0
10,178.15692317953907
11,1.0
12,178.15692317953907
13,1485.5478120977
14,9.950862819763908
15,8.106596691938039
16,9.658243685762387
17,0.8283403506964078
18,9.904973341099576
2,1, 1, 1, 0,15,15.00,30.00,Tuesday
7,-1.1
8,1395.6313707719838
9,1.0
10,166.40516310952945
11,1.0
12,166.40516310952945
13,1395.6313707719838
14,9.89808296371336
15,7.744624568408811
16,9.522582894255948
17,0.7807648993531302
18,9.891939887822194
2,1, 1, 1, 0,15,30.00,45.00,Tuesday
7,-1.1
8,1176.7712955684957
9,1.0
10,140.8967369711617
11,1.0
12,140.8967369711617
13,1176.7712955684957
14,9.768242042688325
15,6.534165039699622
16,9.151490763225809
17,0.5795789388316734
18,9.870373001960651
2,1, 1, 1, 0,15,45.00,60.00,Tuesday
7,-1.1
8,968.3868714642877
9,1.0
10,116.57355796743004
11,1.0
12,116.57355796743004
13,968.3868714642877
14,9.659998705321183
15,5.334696356846432
16,8.78382129487261
17,0.3694253003709491
18,9.828838658201859
2,1, 1, 1, 0,16, 0.00,15.00,Tuesday
7,-1.1
8,768.567072310748
9,1.0
10,93.14939272689483
11,1.0
12,93.14939272689483
13,768.567072310748
14,9.54865748590484
15,4.284954785170637
16,8.453941478062803
17,0.24188852844235954
18,9.765752880692477
2,1, 1, 1, 0,16,15.00,30.00,Tuesday
7,-1.1
8,477.1278311199492
9,1.0
10,57.94047897402063
11,1.0
12,57.94047897402063
13,477.1278311199492
14,9.345445728436271
15,2.1641388302333657
16,7.9509457679209849
17,-0.02561561674724544
18,9.675669540410619
2,1, 1, 1, 0,16,30.00,45.00,Tuesday
7,-1.1
8,369.92992568872679
9,1.0
10,45.38251793443488
11,1.0
12,45.38251793443488
13,369.92992568872679
14,9.2623679831726
15,1.557173176074433
16,7.724448054832806
17,-0.0625814934301161
18,9.574647046103067
2,1, 1, 1, 0,16,45.00,60.00,Tuesday
7,-1.1
8,258.23559610460418
9,1.0
10,32.02625108222755
11,1.0
12,32.02625108222755
13,258.23559610460418
14,9.140481902270205
15,0.6983225760165003
16,7.5146088467270719
17,-0.10161553898421971
18,9.475990708632235
2,1, 1, 1, 0,17, 0.00,15.00,Tuesday
7,-1.1
8,141.6418627784957
9,1.0
10,17.762198626050539
11,1.0
12,17.762198626050539
13,141.6418627784957
14,8.994700720150125
15,-0.5469120847666829
16,7.252055990270549
17,-0.25168117386033375
18,9.378312444444875
2,1, 1, 1, 0,17,15.00,30.00,Tuesday
7,-1.1
8,0.0
9,0.0
10,0.0
11,0.0
12,0.0
13,0.0
14,8.799322438610418
15,-2.3813154403226557
16,6.918554879319117
17,-0.518255288968362
18,9.268633965967688
2,1, 1, 1, 0,17,30.00,45.00,Tuesday
7,-1.1
8,0.0
9,0.0
10,0.0
11,0.0
12,0.0
13,0.0
14,8.738292378541829
15,-2.5144259109155606
16,6.8277110289611759
17,-0.4979282153027498
18,9.161801829008477
2,1, 1, 1, 0,17,45.00,60.00,Tuesday
7,-1.1
8,0.0
9,0.0
10,0.0
11,0.0
12,0.0
13,0.0
14,8.661431651794209
15,-2.700443299053171
16,6.779384139892272
17,-0.46247481947210647
18,9.07171578017154
2,1, 1, 1, 0,18, 0.00,15.00,Tuesday
7,-1.25
8,0.0
9,0.0
10,0.0
11,0.0
12,0.0
13,0.0
14,8.596093625296817
15,-2.8489264827810327
16,6.686846142672721
17,-0.6058348722897335
18,8.99888990084563
2,1, 1, 1, 0,18,15.00,30.00,Tuesday
7,-1.4
8,0.0
9,0.0
10,0.0
11,0.0
12,0.0
13,0.0
14,8.536302861973346
15,-3.0013763496274259
16,6.6084572792707949
17,-0.7391181901955974
18,8.937796728925845
2,1, 1, 1, 0,18,30.00,45.00,Tuesday
7,-1.5499999999999999
8,0.0
9,0.0
10,0.0
11,0.0
12,0.0
13,0.0
14,8.48080222893304
15,-3.15343954948316
16,6.536889477412842
17,-0.8667577585667345
18,8.882911033929389
2,1, 1, 1, 0,18,45.00,60.00,Tuesday
7,-1.7
8,0.0
9,0.0
10,0.0
11,0.0
12,0.0
13,0.0
14,8.427223470725759
15,-3.305669696129332
16,6.465629150630093
17,-0.9988848982075069
18,8.830875300912949
2,1, 1, 1, 0,19, 0.00,15.00,Tuesday
7,-1.825
8,0.0
9,0.0
10,0.0
11,0.0
12,0.0
13,0.0
14,8.397574919946374
15,-3.1660260994603535
16,6.38210404615279
17,-1.1734614246620368
18,8.783564497142024
2,1, 1, 1, 0,19,15.00,30.00,Tuesday
7,-1.9500000000000002
8,0.0
9,0.0
10,0.0
11,0.0
12,0.0
13,0.0
14,8.366710569429566
15,-3.1067746128368745
16,6.314432347700176
17,-1.3327649430880229
18,8.742761299510967
2,1, 1, 1, 0,19,30.00,45.00,Tuesday
7,-2.075
8,0.0
9,0.0
10,0.0
11,0.0
12,0.0
13,0.0
14,8.331726420865588
15,-3.1826224682101866
16,6.26149076542589
17,-1.453353358808954
18,8.707069258841642
2,1, 1, 1, 0,19,45.00,60.00,Tuesday
7,-2.2
8,0.0
9,0.0
10,0.0
11,0.0
12,0.0
13,0.0
14,8.299496353779374
15,-3.1669999917383446
16,6.198409278761119
17,-1.6050954450684004
18,8.673439711072192
2,1, 1, 1, 0,20, 0.00,15.00,Tuesday
7,-1.9250000000000003
8,0.0
9,0.0
10,0.0
11,0.0
12,0.0
13,0.0
14,8.282875455846684
15,-2.867458530729286
16,6.229627841264744
17,-1.3992764747453635
18,8.642400892405109
2,1, 1, 1, 0,20,15.00,30.00,Tuesday
7,-1.6500000000000002
8,0.0
9,0.0
10,0.0
11,0.0
12,0.0
13,0.0
14,8.266663210171059
15,-2.5707532594459598
16,6.259486196693274
17,-1.1823238518355198
18,8.614528219799519
2,1, 1, 1, 0,20,30.00,45.00,Tuesday
7,-1.375
8,0.0
9,0.0
10,0.0
11,0.0
12,0.0
13,0.0
14,8.252232011979644
15,-2.2752580628932836
16,6.290931538367374
17,-0.9631132284702062
18,8.589458893670626
2,1, 1, 1, 0,20,45.00,60.00,Tuesday
7,-1.1
8,0.0
9,0.0
10,0.0
11,0.0
12,0.0
13,0.0
14,8.239364069209512
15,-1.9809592685307398
16,6.324379122091841
17,-0.7417735892504425
18,8.566503897487144
2,1, 1, 1, 0,21, 0.00,15.00,Tuesday
7,-1.25
8,0.0
9,0.0
10,0.0
11,0.0
12,0.0
13,0.0
14,8.187132113379456
15,-2.255312520576796
16,6.284237917687506
17,-0.8133188530708253
18,8.538988462007098
2,1, 1, 1, 0,21,15.00,30.00,Tuesday
7,-1.4
8,0.0
9,0.0
10,0.0
11,0.0
12,0.0
13,0.0
14,8.13565172490899
15,-2.46826851148751
16,6.228900393049798
17,-0.9086743494270877
18,8.502346147313697
2,1, 1, 1, 0,21,30.00,45.00,Tuesday
7,-1.5499999999999999
8,0.0
9,0.0
10,0.0
11,0.0
12,0.0
13,0.0
14,8.07125745369141
15,-2.803567882812451
16,6.180132222522957
17,-0.9703778778154515
18,8.455874525255146
2,1, 1, 1, 0,21,45.00,60.00,Tuesday
7,-1.7
8,0.0
9,0.0
10,0.0
11,0.0
12,0.0
13,0.0
14,8.001581556875662
15,-3.2450663312922427
16,6.131650051728798
17,-1.001727269307196
18,8.401894248768692
2,1, 1, 1, 0,22, 0.00,15.00,Tuesday
7,-1.5499999999999999
8,0.0
9,0.0
10,0.0
11,0.0
12,0.0
13,0.0
14,7.99776172479207
15,-2.769753081860852
16,6.091025946470438
17,-0.9841680260594217
18,8.35376518734044
2,1, 1, 1, 0,22,15.00,30.00,Tuesday
7,-1.4
8,0.0
9,0.0
10,0.0
11,0.0
12,0.0
13,0.0
14,7.982688415335322
15,-2.4479147771196145
16,6.0853471592760119
17,-0.9288120787992966
18,8.318399681585536
2,1, 1, 1, 0,22,30.00,45.00,Tuesday
7,-1.25
8,0.0
9,0.0
10,0.0
11,0.0
12,0.0
13,0.0
14,7.968083315187402
15,-2.2314803814910895
16,6.090204084629875
17,-0.837546361234331
18,8.293402478059138
2,1, 1, 1, 0,22,45.00,60.00,Tuesday
7,-1.1
8,0.0
9,0.0
10,0.0
11,0.0
12,0.0
13,0.0
14,7.95730084276581
15,-1.9556137437725397
16,6.092797015960969
17,-0.7584726460170828
18,8.27352734847712
2,1, 1, 1, 0,23, 0.00,15.00,Tuesday
7,-1.25
8,0.0
9,0.0
10,0.0
11,0.0
12,0.0
13,0.0
14,7.9044082657641578
15,-2.25886613264806
16,6.0034071562724879
17,-1.0386019527554709
18,8.248399477392964
2,1, 1, 1, 0,23,15.00,30.00,Tuesday
7,-1.4
8,0.0
9,0.0
10,0.0
11,0.0
12,0.0
13,0.0
14,7.853687301009022
15,-2.5635451580545616
16,5.901720326247414
17,-1.3334750651454215
18,8.213101856854414
2,1, 1, 1, 0,23,30.00,45.00,Tuesday
7,-1.5499999999999999
8,0.0
9,0.0
10,0.0
11,0.0
12,0.0
13,0.0
14,7.798193012573169
15,-2.868867279523579
16,5.798004687404045
17,-1.6300973010941107
18,8.168951149424725
2,1, 1, 1, 0,23,45.00,60.00,Tuesday
7,-1.7
8,0.0
9,0.0
10,0.0
11,0.0
12,0.0
13,0.0
14,7.738808632745484
15,-3.1745341037613987
16,5.690019030991152
17,-1.9290976444728472
18,8.11899403458728
2,1, 1, 1, 0,24, 0.00,15.00,Tuesday
7,-1.7
8,0.0
9,0.0
10,0.0
11,0.0
12,0.0
13,0.0
14,7.695071276768643
15,-3.2287402370221
16,5.635673462514944
17,-1.995265636775457
18,8.068778681318627
2,1, 1, 1, 0,24,15.00,30.00,Tuesday
7,-1.7
8,0.0
9,0.0
10,0.0
11,0.0
12,0.0
13,0.0
14,7.649297933317973
15,-3.2835058719177465
16,5.586023851961045
17,-2.058212333107349
18,8.021190426375265
2,1, 1, 1, 0,24,30.00,45.00,Tuesday
7,-1.7
8,0.0
9,0.0
10,0.0
11,0.0
12,0.0
13,0.0
14,7.604665496030996
15,-3.3381645340353005
16,5.53623740758826
17,-2.121013910257034
18,7.976126161511327
2,1, 1, 1, 0,24,45.00,60.00,Tuesday
7,-1.7
8,0.0
9,0.0
10,0.0
11,0.0
12,0.0
13,0.0
14,7.560869377384681
15,-3.392826897058644
16,5.487406401228327
17,-2.1834899224377297
18,7.932525707848105
End of Data
 Number of Records Written=        1152
