Program Version,EnergyPlus, Version 9.5.0-de239b2e5f, YMD=2023.02.16 21:09
1,5,Environment Title[],Latitude[deg],Longitude[deg],Time Zone[],Elevation[m]
2,8,Day of Simulation[],Month[],Day of Month[],DST Indicator[1=yes 0=no],Hour[],StartMinute[],EndMinute[],DayType
3,5,Cumulative Day of Simulation[],Month[],Day of Month[],DST Indicator[1=yes 0=no],DayType  ! When Daily Report Variables Requested
4,2,Cumulative Days of Simulation[],Month[]  ! When Monthly Report Variables Requested
5,1,Cumulative Days of Simulation[] ! When Run Period Report Variables Requested
6,1,Calendar Year of Simulation[] ! When Annual Report Variables Requested
7,1,Environment,Site Outdoor Air Drybulb Temperature [C] !TimeStep
8,1,ZONE ONE,Zone Windows Total Transmitted Solar Radiation Rate [W] !TimeStep
9,1,ZN001:WALL001,Surface Outside Face Sunlit Fraction [] !TimeStep
10,1,ZN001:WALL001,Surface Outside Face Incident Solar Radiation Rate per Area [W/m2] !TimeStep
11,1,ZN001:WALL001:WIN001,Surface Outside Face Sunlit Fraction [] !TimeStep
12,1,ZN001:WALL001:WIN001,Surface Outside Face Incident Solar Radiation Rate per Area [W/m2] !TimeStep
13,1,ZN001:WALL001:WIN001,Surface Window Transmitted Solar Radiation Rate [W] !TimeStep
14,1,ZN001:WALL001,Surface Inside Face Temperature [C] !TimeStep
15,1,ZN001:WALL001,Surface Outside Face Temperature [C] !TimeStep
16,1,ZN001:WALL001:WIN001,Surface Inside Face Temperature [C] !TimeStep
17,1,ZN001:WALL001:WIN001,Surface Outside Face Temperature [C] !TimeStep
18,1,ZONE ONE,Zone Mean Air Temperature [C] !TimeStep
End of Data Dictionary
1,RUN PERIOD 1,  41.98, -87.92,  -6.00, 201.00
2,1, 1, 1, 0, 1, 0.00,15.00,Tuesday
7,-4.324999999999999
8,0.0
9,0.0
10,0.0
11,0.0
12,0.0
13,0.0
14,6.251580054721165
15,-5.890084855396473
16,3.868983368772092
17,-4.325244539509413
18,6.720200841062387
2,1, 1, 1, 0, 1,15.00,30.00,Tuesday
7,-6.949999999999999
8,0.0
9,0.0
10,0.0
11,0.0
12,0.0
13,0.0
14,6.0689179643301
15,-8.35745518434144
16,3.264522593749234
17,-6.412821777678232
18,6.621010252278368
2,1, 1, 1, 0, 1,30.00,45.00,Tuesday
7,-9.575
8,0.0
9,0.0
10,0.0
11,0.0
12,0.0
13,0.0
14,5.866235411539789
15,-10.832791732541918
16,2.6539465422039258
17,-8.506716683427613
18,6.490095332508327
2,1, 1, 1, 0, 1,45.00,60.00,Tuesday
7,-12.2
8,0.0
9,0.0
10,0.0
11,0.0
12,0.0
13,0.0
14,5.647694260279514
15,-13.31475109636695
16,2.028532603339272
17,-10.608260561899386
18,6.337200563614233
2,1, 1, 1, 0, 2, 0.00,15.00,Tuesday
7,-12.075
8,0.0
9,0.0
10,0.0
11,0.0
12,0.0
13,0.0
14,5.577967567633934
15,-13.115692438417238
16,1.9584376293179276
17,-10.44989574146723
18,6.199373569561578
2,1, 1, 1, 0, 2,15.00,30.00,Tuesday
7,-11.95
8,0.0
9,0.0
10,0.0
11,0.0
12,0.0
13,0.0
14,5.494778639142766
15,-12.938651669472718
16,1.9232810223052753
17,-10.305421160610308
18,6.093508083735285
2,1, 1, 1, 0, 2,30.00,45.00,Tuesday
7,-11.825
8,0.0
9,0.0
10,0.0
11,0.0
12,0.0
13,0.0
14,5.428782557872958
15,-12.76045273301946
16,1.8938185223533424
17,-10.160531687486696
18,6.014116089513822
2,1, 1, 1, 0, 2,45.00,60.00,Tuesday
7,-11.7
8,0.0
9,0.0
10,0.0
11,0.0
12,0.0
13,0.0
14,5.37395391312862
15,-12.582334967104164
16,1.8770492298849604
17,-10.013000151284928
18,5.9501448696816159
2,1, 1, 1, 0, 3, 0.00,15.00,Tuesday
7,-11.549999999999999
8,0.0
9,0.0
10,0.0
11,0.0
12,0.0
13,0.0
14,5.320838377439588
15,-12.455895842555642
16,1.871208082141493
17,-9.875349734136194
18,5.892740307712685
2,1, 1, 1, 0, 3,15.00,30.00,Tuesday
7,-11.399999999999999
8,0.0
9,0.0
10,0.0
11,0.0
12,0.0
13,0.0
14,5.270801585545241
15,-12.330808175907935
16,1.8602343051659887
17,-9.718101733496497
18,5.837454756540016
2,1, 1, 1, 0, 3,30.00,45.00,Tuesday
7,-11.25
8,0.0
9,0.0
10,0.0
11,0.0
12,0.0
13,0.0
14,5.221696152962394
15,-12.20722868135784
16,1.8578642834073094
17,-9.579378477250714
18,5.783123417612529
2,1, 1, 1, 0, 3,45.00,60.00,Tuesday
7,-11.1
8,0.0
9,0.0
10,0.0
11,0.0
12,0.0
13,0.0
14,5.1729901487082758
15,-12.085207271624432
16,1.8492068004032945
17,-9.42247814810969
18,5.729546533967952
2,1, 1, 1, 0, 4, 0.00,15.00,Tuesday
7,-11.1
8,0.0
9,0.0
10,0.0
11,0.0
12,0.0
13,0.0
14,5.120591943749536
15,-12.057317575625895
16,1.7947294097404552
17,-9.460474298135921
18,5.675874961314156
2,1, 1, 1, 0, 4,15.00,30.00,Tuesday
7,-11.1
8,0.0
9,0.0
10,0.0
11,0.0
12,0.0
13,0.0
14,5.068573809815921
15,-12.030500448893639
16,1.743434609125984
17,-9.497500516098171
18,5.621773631321173
2,1, 1, 1, 0, 4,30.00,45.00,Tuesday
7,-11.1
8,0.0
9,0.0
10,0.0
11,0.0
12,0.0
13,0.0
14,5.016378121690661
15,-12.00519186630119
16,1.6925106382861373
17,-9.533560828768941
18,5.567362933721159
2,1, 1, 1, 0, 4,45.00,60.00,Tuesday
7,-11.1
8,0.0
9,0.0
10,0.0
11,0.0
12,0.0
13,0.0
14,4.964112054950815
15,-11.981261876768399
16,1.6417855006108085
17,-9.568575617019974
18,5.51286141203848
2,1, 1, 1, 0, 5, 0.00,15.00,Tuesday
7,-10.975
8,0.0
9,0.0
10,0.0
11,0.0
12,0.0
13,0.0
14,4.917468228561778
15,-11.85934164169346
16,1.6279458052674727
17,-9.482569551514246
18,5.4594852924717689
2,1, 1, 1, 0, 5,15.00,30.00,Tuesday
7,-10.85
8,0.0
9,0.0
10,0.0
11,0.0
12,0.0
13,0.0
14,4.871045190687091
15,-11.737489476114004
16,1.611943409389255
17,-9.388511951960595
18,5.407720577062495
2,1, 1, 1, 0, 5,30.00,45.00,Tuesday
7,-10.725
8,0.0
9,0.0
10,0.0
11,0.0
12,0.0
13,0.0
14,4.8256570009377219
15,-11.615614579831478
16,1.5962291005251928
17,-9.293605906703533
18,5.357335949013133
2,1, 1, 1, 0, 5,45.00,60.00,Tuesday
7,-10.6
8,0.0
9,0.0
10,0.0
11,0.0
12,0.0
13,0.0
14,4.781129451582636
15,-11.493749131384318
16,1.581322515434806
17,-9.198462905249813
18,5.307950938358501
2,1, 1, 1, 0, 6, 0.00,15.00,Tuesday
7,-10.6
8,0.0
9,0.0
10,0.0
11,0.0
12,0.0
13,0.0
14,4.729654583405366
15,-11.494753194147961
16,1.5375429151372373
17,-9.199948649143437
18,5.257960560432341
2,1, 1, 1, 0, 6,15.00,30.00,Tuesday
7,-10.6
8,0.0
9,0.0
10,0.0
11,0.0
12,0.0
13,0.0
14,4.6788156726757779
15,-11.495705478757348
16,1.494820231609424
17,-9.208057856173412
18,5.2066577009434209
2,1, 1, 1, 0, 6,30.00,45.00,Tuesday
7,-10.6
8,0.0
9,0.0
10,0.0
11,0.0
12,0.0
13,0.0
14,4.627443292476261
15,-11.496699782058168
16,1.4522842724426824
17,-9.216748016901136
18,5.154326729906219
2,1, 1, 1, 0, 6,45.00,60.00,Tuesday
7,-10.6
8,0.0
9,0.0
10,0.0
11,0.0
12,0.0
13,0.0
14,4.5757645905217789
15,-11.497691914096868
16,1.4093900619196234
17,-9.225584152915303
18,5.101484380997346
2,1, 1, 1, 0, 7, 0.00,15.00,Tuesday
7,-10.6
8,0.0
9,0.0
10,0.0
11,0.0
12,0.0
13,0.0
14,4.52605097134301
15,-11.474633344717589
16,1.3598698734205073
17,-9.255386235689457
18,5.048793700221636
2,1, 1, 1, 0, 7,15.00,30.00,Tuesday
7,-10.6
8,0.0
9,0.0
10,0.0
11,0.0
12,0.0
13,0.0
14,4.476225250050352
15,-11.452770417023013
16,1.312246601564084
17,-9.285397560054776
18,4.996598118441704
2,1, 1, 1, 0, 7,30.00,45.00,Tuesday
7,-10.6
8,0.0
9,0.0
10,0.0
11,0.0
12,0.0
13,0.0
14,4.426695279219711
15,-11.432020403429905
16,1.2650728998398222
17,-9.314619852196643
18,4.9448806114455829
2,1, 1, 1, 0, 7,45.00,60.00,Tuesday
7,-10.6
8,0.0
9,0.0
10,0.0
11,0.0
12,0.0
13,0.0
14,4.37746761479311
15,-11.41231725545572
16,1.2184001258655144
17,-9.34291273829615
18,4.893529155646807
2,1, 1, 1, 0, 8, 0.00,15.00,Tuesday
7,-10.45
8,0.0
9,0.0
10,0.0
11,0.0
12,0.0
13,0.0
14,4.327693375930133
15,-11.362990772333277
16,1.196653618419134
17,-9.291151674048934
18,4.842228179634312
2,1, 1, 1, 0, 8,15.00,30.00,Tuesday
7,-10.3
8,164.70730277996078
9,1.0
10,22.819555959623899
11,1.0
12,22.819555959623899
13,164.70730277996078
14,4.3995784631186629
15,-9.68931275088215
16,1.4942826903889568
17,-8.962680634880713
18,4.809451733095809
2,1, 1, 1, 0, 8,30.00,45.00,Tuesday
7,-10.15
8,808.7145075753374
9,1.0
10,109.75755355442667
11,1.0
12,109.75755355442667
13,808.7145075753374
14,4.803461727059792
15,-3.3180190306393277
16,2.763431755626243
17,-7.847161020259307
18,4.846755620547266
2,1, 1, 1, 0, 8,45.00,60.00,Tuesday
7,-10.0
8,1470.5605139501664
9,1.0
10,195.8764694434918
11,1.0
12,195.8764694434918
13,1470.5605139501664
14,5.316791286086484
15,3.1635077855949085
16,4.169786985928681
17,-6.73235119084751
18,4.9615333361981499
2,1, 1, 1, 0, 9, 0.00,15.00,Tuesday
7,-9.725
8,2130.1268679617157
9,1.0
10,278.97248314719988
11,1.0
12,278.97248314719988
13,2130.1268679617157
14,5.747371631758704
15,8.34071338971569
16,5.633409651933789
17,-5.71700967400443
18,5.130433977057174
2,1, 1, 1, 0, 9,15.00,30.00,Tuesday
7,-9.45
8,2825.385387072841
9,1.0
10,364.91995730569456
11,1.0
12,364.91995730569456
13,2825.385387072841
14,6.193461120952756
15,13.4177252510678
16,7.057252333377164
17,-4.7069618593421869
18,5.344763264201984
2,1, 1, 1, 0, 9,30.00,45.00,Tuesday
7,-9.175
8,3285.3657815806207
9,1.0
10,420.35879993239237
11,1.0
12,420.35879993239237
13,3285.3657815806207
14,6.510948389925494
15,16.175123059210315
16,8.015073037816763
17,-4.0828457095663
18,5.584388577555571
2,1, 1, 1, 0, 9,45.00,60.00,Tuesday
7,-8.9
8,3762.8630174369429
9,1.0
10,478.00138373643099
11,1.0
12,478.00138373643099
13,3762.8630174369429
14,6.882751679177238
15,19.169697120171148
16,8.96639316713231
17,-3.4375593719923929
18,5.83867259217029
2,1, 1, 1, 0,10, 0.00,15.00,Tuesday
7,-8.350000000000002
8,4250.448423053731
9,1.0
10,536.9185644770597
11,1.0
12,536.9185644770597
13,4250.448423053731
14,7.201979184809777
15,20.28566588631767
16,9.948392759506419
17,-2.7514158892176967
18,6.107599187314677
2,1, 1, 1, 0,10,15.00,30.00,Tuesday
7,-7.800000000000001
8,4754.8784400001809
9,1.0
10,598.0969199229219
11,1.0
12,598.0969199229219
13,4754.8784400001809
14,7.550529301703491
15,21.537459703749378
16,10.946676749327822
17,-2.066474575289135
18,6.396961439051108
2,1, 1, 1, 0,10,30.00,45.00,Tuesday
7,-7.25
8,5085.790385716765
9,1.0
10,637.6133352894237
11,1.0
12,637.6133352894237
13,5085.790385716765
14,7.822063664532182
15,21.596041336659689
16,11.6728559531565
17,-1.5823733802144489
18,6.51898891232516
2,1, 1, 1, 0,10,45.00,60.00,Tuesday
7,-6.7
8,5411.8281742364
9,1.0
10,676.6412284283772
11,1.0
12,676.6412284283772
13,5411.8281742364
14,8.072834368323827
15,21.754123297729433
16,12.347523450397035
17,-1.104648472775466
18,6.7587068010243789
2,1, 1, 1, 0,11, 0.00,15.00,Tuesday
7,-6.275
8,5731.93450410702
9,1.0
10,715.0112779846514
11,1.0
12,715.0112779846514
13,5731.93450410702
14,8.372103288612154
15,23.85095534233223
16,13.033884729481827
17,-0.4082323094496587
18,6.9438227533509508
2,1, 1, 1, 0,11,15.00,30.00,Tuesday
7,-5.85
8,6044.505928231053
9,1.0
10,752.5077794605232
11,1.0
12,752.5077794605232
13,6044.505928231053
14,8.736856346878245
15,25.78771451278496
16,13.74632623271657
17,0.27356653107483455
18,7.376680618688604
2,1, 1, 1, 0,11,30.00,45.00,Tuesday
7,-5.425
8,5951.610197095371
9,1.0
10,742.5988714321785
11,1.0
12,742.5988714321785
13,5951.610197095371
14,9.01666057111122
15,25.64128007474468
16,13.953266794350384
17,0.57578094082794
18,7.759227879218497
2,1, 1, 1, 0,11,45.00,60.00,Tuesday
7,-5.0
8,5818.873031211445
9,1.0
10,727.8169025450712
11,1.0
12,727.8169025450712
13,5818.873031211445
14,9.25922569408563
15,25.412239852450946
16,14.07450869175807
17,0.8472295395596348
18,8.083867471375538
2,1, 1, 1, 0,12, 0.00,15.00,Tuesday
7,-4.575
8,5590.605323962885
9,1.0
10,700.3759009170325
11,1.0
12,700.3759009170325
13,5590.605323962885
14,9.430469822657115
15,24.670087793168908
16,14.032844615679096
17,1.0609642834251077
18,8.357419317979066
2,1, 1, 1, 0,12,15.00,30.00,Tuesday
7,-4.15
8,5421.315289253884
9,1.0
10,681.6705029034473
11,1.0
12,681.6705029034473
13,5421.315289253884
14,9.587613254332652
15,24.339241975949503
16,14.045086241818297
17,1.33709664436293
18,8.593920019337352
2,1, 1, 1, 0,12,30.00,45.00,Tuesday
7,-3.7249999999999998
8,4759.463309286249
9,1.0
10,602.01865277251
11,1.0
12,602.01865277251
13,4759.463309286249
14,9.529724469857351
15,21.311926554276796
16,13.34096087154228
17,1.1468840612479312
18,8.771297761918058
2,1, 1, 1, 0,12,45.00,60.00,Tuesday
7,-3.3
8,3887.1134706147715
9,1.0
10,493.55004396206007
11,1.0
12,493.55004396206007
13,3887.1134706147715
14,9.340940354884934
15,17.133772844310096
16,12.190724029458636
17,0.7111552209652814
18,8.864054732700032
2,1, 1, 1, 0,13, 0.00,15.00,Tuesday
7,-3.0249999999999996
8,3209.574868603734
9,1.0
10,412.335026418112
11,1.0
12,412.335026418112
13,3209.574868603734
14,9.210602567263467
15,14.290135828651522
16,11.265329392593458
17,0.41742000222330946
18,8.889263546430178
2,1, 1, 1, 0,13,15.00,30.00,Tuesday
7,-2.75
8,2350.7180690914585
9,1.0
10,305.94037763660148
11,1.0
12,305.94037763660148
13,2350.7180690914585
14,8.902848495953944
15,10.117379262272984
16,9.97318873591206
17,-0.09832408320176
18,8.85729913923848
2,1, 1, 1, 0,13,30.00,45.00,Tuesday
7,-2.475
8,2146.122384804586
9,1.0
10,281.0763483922329
11,1.0
12,281.0763483922329
13,2146.122384804586
14,8.876140816795948
15,9.605346753300794
16,9.660435581682009
17,0.024785172132055778
18,8.808144284817298
2,1, 1, 1, 0,13,45.00,60.00,Tuesday
7,-2.2
8,1945.7887113955822
9,1.0
10,256.7721209415886
11,1.0
12,256.7721209415886
13,1945.7887113955822
14,8.841757027191492
15,8.998838686556871
16,9.423026226223897
17,0.17245627160298228
18,8.766187779859266
2,1, 1, 1, 0,14, 0.00,15.00,Tuesday
7,-1.9250000000000003
8,1589.5114814468812
9,1.0
10,210.73276284570657
11,1.0
12,210.73276284570657
13,1589.5114814468812
14,8.697131833732549
15,7.45176848586097
16,8.856626935161558
17,0.10359071037453305
18,8.728645446233532
2,1, 1, 1, 0,14,15.00,30.00,Tuesday
7,-1.6500000000000002
8,1411.9992818845379
9,1.0
10,189.38488290342594
11,1.0
12,189.38488290342594
13,1411.9992818845379
14,8.661754867056548
15,7.047586289785721
16,8.582137181177587
17,0.22619604561850793
18,8.695363899622766
2,1, 1, 1, 0,14,30.00,45.00,Tuesday
7,-1.375
8,1346.6477146256526
9,1.0
10,179.3940297802914
11,1.0
12,179.3940297802914
13,1346.6477146256526
14,8.653029117859785
15,7.171263842643925
16,8.528363187080914
17,0.46270276839834426
18,8.667706444548767
2,1, 1, 1, 0,14,45.00,60.00,Tuesday
7,-1.1
8,1280.5495415471219
9,1.0
10,169.43349014176136
11,1.0
12,169.43349014176136
13,1280.5495415471219
14,8.640624824156062
15,7.270825104925766
16,8.467555931068887
17,0.6973264785102629
18,8.645059192737144
2,1, 1, 1, 0,15, 0.00,15.00,Tuesday
7,-1.1
8,1347.8587297811799
9,1.0
10,178.15692317953907
11,1.0
12,178.15692317953907
13,1347.8587297811799
14,8.705580378968535
15,8.09130715716694
16,8.60804399451655
17,0.8333984351502863
18,8.630446577244033
2,1, 1, 1, 0,15,15.00,30.00,Tuesday
7,-1.1
8,1266.276259391967
9,1.0
10,166.40516310952945
11,1.0
12,166.40516310952945
13,1266.276259391967
14,8.652304288316266
15,7.72646279133287
16,8.46112258875354
17,0.7800627410670131
18,8.619025770857597
2,1, 1, 1, 0,15,30.00,45.00,Tuesday
7,-1.1
8,1067.701389865137
9,1.0
10,140.8967369711617
11,1.0
12,140.8967369711617
13,1067.701389865137
14,8.53066193040745
15,6.519436968122096
16,8.070415685549506
17,0.5582693084181756
18,8.60046526526091
2,1, 1, 1, 0,15,45.00,60.00,Tuesday
7,-1.1
8,878.6312280760801
9,1.0
10,116.57355796743004
11,1.0
12,116.57355796743004
13,878.6312280760801
14,8.418179526277284
15,5.31386848100963
16,7.685560637580124
17,0.33864892217707168
18,8.56306565158732
2,1, 1, 1, 0,16, 0.00,15.00,Tuesday
7,-1.1
8,697.3318727282369
9,1.0
10,93.14939272689483
11,1.0
12,93.14939272689483
13,697.3318727282369
14,8.313188821987103
15,4.263997124316586
16,7.344219449985758
17,0.19577243121403854
18,8.50531485043007
2,1, 1, 1, 0,16,15.00,30.00,Tuesday
7,-1.1
8,432.9048901425401
9,1.0
10,57.94047897402063
11,1.0
12,57.94047897402063
13,432.9048901425401
14,8.116786453641805
15,2.1412196782318109
16,6.82379649291812
17,-0.09447837007229509
18,8.419729873779954
2,1, 1, 1, 0,16,30.00,45.00,Tuesday
7,-1.1
8,335.64270075152066
9,1.0
10,45.38251793443488
11,1.0
12,45.38251793443488
13,335.64270075152066
14,8.037750167523429
15,1.5322096547054165
16,6.596444103526267
17,-0.1442389056084039
18,8.321894660603168
2,1, 1, 1, 0,16,45.00,60.00,Tuesday
7,-1.1
8,234.3008415590897
9,1.0
10,32.02625108222755
11,1.0
12,32.02625108222755
13,234.3008415590897
14,7.919981151202228
15,0.6708486673093222
16,6.38229890700552
17,-0.19771287751183309
18,8.225640347960323
2,1, 1, 1, 0,17, 0.00,15.00,Tuesday
7,-1.1
8,128.5136834333092
9,1.0
10,17.762198626050539
11,1.0
12,17.762198626050539
13,128.5136834333092
14,7.777837692082251
15,-0.5777336051646823
16,6.113472979047174
17,-0.3627066814245836
18,8.130362818804619
2,1, 1, 1, 0,17,15.00,30.00,Tuesday
7,-1.1
8,0.0
9,0.0
10,0.0
11,0.0
12,0.0
13,0.0
14,7.5863480237179259
15,-2.41373207406919
16,5.772444763877218
17,-0.6404021238403175
18,8.023733184132724
2,1, 1, 1, 0,17,30.00,45.00,Tuesday
7,-1.1
8,0.0
9,0.0
10,0.0
11,0.0
12,0.0
13,0.0
14,7.528159898210198
15,-2.548390698672793
16,5.685197384970365
17,-0.6300167326653536
18,7.920030788273283
2,1, 1, 1, 0,17,45.00,60.00,Tuesday
7,-1.1
8,0.0
9,0.0
10,0.0
11,0.0
12,0.0
13,0.0
14,7.454431304075664
15,-2.7371689556888669
16,5.639025574549009
17,-0.6034443335563537
18,7.8327202211875959
2,1, 1, 1, 0,18, 0.00,15.00,Tuesday
7,-1.25
8,0.0
9,0.0
10,0.0
11,0.0
12,0.0
13,0.0
14,7.392168915612203
15,-2.885294361488506
16,5.547990712158594
17,-0.7439249415054405
18,7.762429196932536
2,1, 1, 1, 0,18,15.00,30.00,Tuesday
7,-1.4
8,0.0
9,0.0
10,0.0
11,0.0
12,0.0
13,0.0
14,7.335277684909189
15,-3.0377293251976997
16,5.470993270852318
17,-0.8754008723317952
18,7.703870901029383
2,1, 1, 1, 0,18,30.00,45.00,Tuesday
7,-1.5499999999999999
8,0.0
9,0.0
10,0.0
11,0.0
12,0.0
13,0.0
14,7.282605086118914
15,-3.1897342862100439
16,5.398351226806994
17,-1.0061024823285152
18,7.651673211055457
2,1, 1, 1, 0,18,45.00,60.00,Tuesday
7,-1.7
8,0.0
9,0.0
10,0.0
11,0.0
12,0.0
13,0.0
14,7.2319328814844179
15,-3.3419076210042668
16,5.328571591399566
17,-1.1360884108987648
18,7.602479202755814
2,1, 1, 1, 0,19, 0.00,15.00,Tuesday
7,-1.825
8,0.0
9,0.0
10,0.0
11,0.0
12,0.0
13,0.0
14,7.205789074740728
15,-3.198028589575937
16,5.250570787008371
17,-1.2933212249514555
18,7.558108278599403
2,1, 1, 1, 0,19,15.00,30.00,Tuesday
7,-1.9500000000000002
8,0.0
9,0.0
10,0.0
11,0.0
12,0.0
13,0.0
14,7.178479911421348
15,-3.1350673468643168
16,5.185743165287931
17,-1.4416933634271346
18,7.520344797373017
2,1, 1, 1, 0,19,30.00,45.00,Tuesday
7,-2.075
8,0.0
9,0.0
10,0.0
11,0.0
12,0.0
13,0.0
14,7.146832811519909
15,-3.2099081057555076
16,5.134596092861159
17,-1.558257179120119
18,7.487796084036812
2,1, 1, 1, 0,19,45.00,60.00,Tuesday
7,-2.2
8,0.0
9,0.0
10,0.0
11,0.0
12,0.0
13,0.0
14,7.118022117094267
15,-3.191042417853004
16,5.074313607682086
17,-1.7008416064322205
18,7.45741872916057
2,1, 1, 1, 0,20, 0.00,15.00,Tuesday
7,-1.9250000000000003
8,0.0
9,0.0
10,0.0
11,0.0
12,0.0
13,0.0
14,7.104968606462758
15,-2.890704545135804
16,5.1128562690668108
17,-1.495910254149294
18,7.429723189723171
2,1, 1, 1, 0,20,15.00,30.00,Tuesday
7,-1.6500000000000002
8,0.0
9,0.0
10,0.0
11,0.0
12,0.0
13,0.0
14,7.092390336420423
15,-2.5932751518914629
16,5.149910864895446
17,-1.2794377582363268
18,7.405263111178548
2,1, 1, 1, 0,20,30.00,45.00,Tuesday
7,-1.375
8,0.0
9,0.0
10,0.0
11,0.0
12,0.0
13,0.0
14,7.0816001476413359
15,-2.297093328732614
16,5.188600599620543
17,-1.0606318945661997
18,7.383664317989617
2,1, 1, 1, 0,20,45.00,60.00,Tuesday
7,-1.1
8,0.0
9,0.0
10,0.0
11,0.0
12,0.0
13,0.0
14,7.072385770367609
15,-2.0021417656376649
16,5.2293381138888439
17,-0.839632612006767
18,7.3642281203484949
2,1, 1, 1, 0,21, 0.00,15.00,Tuesday
7,-1.25
8,0.0
9,0.0
10,0.0
11,0.0
12,0.0
13,0.0
14,7.022849110982102
15,-2.2798108613730294
16,5.1882764261112019
17,-0.9181517650051774
18,7.340239555680166
2,1, 1, 1, 0,21,15.00,30.00,Tuesday
7,-1.4
8,0.0
9,0.0
10,0.0
11,0.0
12,0.0
13,0.0
14,6.974027142099017
15,-2.4945473838561416
16,5.13357634105887
17,-1.0168378255799553
18,7.307057176984682
2,1, 1, 1, 0,21,30.00,45.00,Tuesday
7,-1.5499999999999999
8,0.0
9,0.0
10,0.0
11,0.0
12,0.0
13,0.0
14,6.912061821578495
15,-2.83428181351145
16,5.0843511146476889
17,-1.0882909211327956
18,7.263885265858956
2,1, 1, 1, 0,21,45.00,60.00,Tuesday
7,-1.7
8,0.0
9,0.0
10,0.0
11,0.0
12,0.0
13,0.0
14,6.844818779709235
15,-3.280915402494029
16,5.035849371609402
17,-1.131752081245395
18,7.213006955555622
2,1, 1, 1, 0,22, 0.00,15.00,Tuesday
7,-1.5499999999999999
8,0.0
9,0.0
10,0.0
11,0.0
12,0.0
13,0.0
14,6.844804692720922
15,-2.7995904232415098
16,5.002329076907017
17,-1.1032627752488793
18,7.167849062478546
2,1, 1, 1, 0,22,15.00,30.00,Tuesday
7,-1.4
8,0.0
9,0.0
10,0.0
11,0.0
12,0.0
13,0.0
14,6.834766982660746
15,-2.473689728602522
16,5.003458499011913
17,-1.0379197503938827
18,7.135599778732414
2,1, 1, 1, 0,22,30.00,45.00,Tuesday
7,-1.25
8,0.0
9,0.0
10,0.0
11,0.0
12,0.0
13,0.0
14,6.823830188120141
15,-2.2554892720076227
16,5.014424188580392
17,-0.9427230825330071
18,7.113932884687502
2,1, 1, 1, 0,22,45.00,60.00,Tuesday
7,-1.1
8,0.0
9,0.0
10,0.0
11,0.0
12,0.0
13,0.0
14,6.81684491261812
15,-1.976360015644484
16,5.023993444140558
17,-0.8553352311334947
18,7.097557253017827
2,1, 1, 1, 0,23, 0.00,15.00,Tuesday
7,-1.25
8,0.0
9,0.0
10,0.0
11,0.0
12,0.0
13,0.0
14,6.765779179068926
15,-2.2796801426150918
16,4.932294419195387
17,-1.1314478291568549
18,7.075906319706901
2,1, 1, 1, 0,23,15.00,30.00,Tuesday
7,-1.4
8,0.0
9,0.0
10,0.0
11,0.0
12,0.0
13,0.0
14,6.717856696955458
15,-2.5842960414317148
16,4.828510567321814
17,-1.4238307849017247
18,7.043958243317422
2,1, 1, 1, 0,23,30.00,45.00,Tuesday
7,-1.5499999999999999
8,0.0
9,0.0
10,0.0
11,0.0
12,0.0
13,0.0
14,6.665110250048373
15,-2.889595394800851
16,4.7229672705086049
17,-1.7181018287520829
18,7.003005424470787
2,1, 1, 1, 0,23,45.00,60.00,Tuesday
7,-1.7
8,0.0
9,0.0
10,0.0
11,0.0
12,0.0
13,0.0
14,6.608458572073989
15,-3.195234647003323
16,4.613159691041233
17,-2.0147901505147276
18,6.956098955569668
2,1, 1, 1, 0,24, 0.00,15.00,Tuesday
7,-1.7
8,0.0
9,0.0
10,0.0
11,0.0
12,0.0
13,0.0
14,6.567756213043426
15,-3.2493571261998026
16,4.561706465436373
17,-2.0786503577668329
18,6.908840728212236
2,1, 1, 1, 0,24,15.00,30.00,Tuesday
7,-1.7
8,0.0
9,0.0
10,0.0
11,0.0
12,0.0
13,0.0
14,6.524964176015407
15,-3.3040722886792648
16,4.514246060174514
17,-2.1406582933125835
18,6.864170926943492
2,1, 1, 1, 0,24,30.00,45.00,Tuesday
7,-1.7
8,0.0
9,0.0
10,0.0
11,0.0
12,0.0
13,0.0
14,6.4832763806756399
15,-3.3586796992444989
16,4.466655959614627
17,-2.2026288437635914
18,6.822030547384545
2,1, 1, 1, 0,24,45.00,60.00,Tuesday
7,-1.7
8,0.0
9,0.0
10,0.0
11,0.0
12,0.0
13,0.0
14,6.4424110132567329
15,-3.413290122721325
16,4.419994927107155
17,-2.2642846008690187
18,6.781378068897075
End of Data
 Number of Records Written=        1152
