Program Version,EnergyPlus, Version 9.5.0-de239b2e5f, YMD=2023.02.16 21:09
1,5,Environment Title[],Latitude[deg],Longitude[deg],Time Zone[],Elevation[m]
2,8,Day of Simulation[],Month[],Day of Month[],DST Indicator[1=yes 0=no],Hour[],StartMinute[],EndMinute[],DayType
3,5,Cumulative Day of Simulation[],Month[],Day of Month[],DST Indicator[1=yes 0=no],DayType  ! When Daily Report Variables Requested
4,2,Cumulative Days of Simulation[],Month[]  ! When Monthly Report Variables Requested
5,1,Cumulative Days of Simulation[] ! When Run Period Report Variables Requested
6,1,Calendar Year of Simulation[] ! When Annual Report Variables Requested
7,1,Environment,Site Outdoor Air Drybulb Temperature [C] !TimeStep
8,1,ZONE ONE,Zone Windows Total Transmitted Solar Radiation Rate [W] !TimeStep
9,1,ZN001:WALL001,Surface Outside Face Sunlit Fraction [] !TimeStep
10,1,ZN001:WALL001,Surface Outside Face Incident Solar Radiation Rate per Area [W/m2] !TimeStep
11,1,ZN001:WALL001:WIN001,Surface Outside Face Sunlit Fraction [] !TimeStep
12,1,ZN001:WALL001:WIN001,Surface Outside Face Incident Solar Radiation Rate per Area [W/m2] !TimeStep
13,1,ZN001:WALL001:WIN001,Surface Window Transmitted Solar Radiation Rate [W] !TimeStep
14,1,ZN001:WALL001,Surface Inside Face Temperature [C] !TimeStep
15,1,ZN001:WALL001,Surface Outside Face Temperature [C] !TimeStep
16,1,ZN001:WALL001:WIN001,Surface Inside Face Temperature [C] !TimeStep
17,1,ZN001:WALL001:WIN001,Surface Outside Face Temperature [C] !TimeStep
18,1,ZONE ONE,Zone Mean Air Temperature [C] !TimeStep
End of Data Dictionary
1,RUN PERIOD 1,  41.98, -87.92,  -6.00, 201.00
2,1, 1, 1, 0, 1, 0.00,15.00,Tuesday
7,-4.324999999999999
8,0.0
9,0.0
10,0.0
11,0.0
12,0.0
13,0.0
14,8.72561312262529
15,-5.845101095582898
16,6.493419573787833
17,-4.347159212858628
18,9.26305348393706
2,1, 1, 1, 0, 1,15.00,30.00,Tuesday
7,-6.949999999999999
8,0.0
9,0.0
10,0.0
11,0.0
12,0.0
13,0.0
14,8.541854219708636
15,-8.311962853570089
16,5.977667389538567
17,-6.50074608401826
18,9.160305145768464
2,1, 1, 1, 0, 1,30.00,45.00,Tuesday
7,-9.575
8,0.0
9,0.0
10,0.0
11,0.0
12,0.0
13,0.0
14,8.338691496885117
15,-10.786700617252711
16,5.454960234813029
17,-8.660739125333066
18,9.027684539579969
2,1, 1, 1, 0, 1,45.00,60.00,Tuesday
7,-12.2
8,0.0
9,0.0
10,0.0
11,0.0
12,0.0
13,0.0
14,8.12032961312128
15,-13.268079694080426
16,4.917015919849746
17,-10.828148746814862
18,8.874599895959916
2,1, 1, 1, 0, 2, 0.00,15.00,Tuesday
7,-12.075
8,0.0
9,0.0
10,0.0
11,0.0
12,0.0
13,0.0
14,8.0463830385563
15,-13.068599522400263
16,4.82946539635077
17,-10.660086986524619
18,8.736166852685836
2,1, 1, 1, 0, 2,15.00,30.00,Tuesday
7,-11.95
8,0.0
9,0.0
10,0.0
11,0.0
12,0.0
13,0.0
14,7.959431203075503
15,-12.891659561852846
16,4.7815496801500789
17,-10.507841530839415
18,8.628326235539563
2,1, 1, 1, 0, 2,30.00,45.00,Tuesday
7,-11.825
8,0.0
9,0.0
10,0.0
11,0.0
12,0.0
13,0.0
14,7.888996663933234
15,-12.71360768776516
16,4.738891945450462
17,-10.355376927589703
18,8.54553670379279
2,1, 1, 1, 0, 2,45.00,60.00,Tuesday
7,-11.7
8,0.0
9,0.0
10,0.0
11,0.0
12,0.0
13,0.0
14,7.82917571388214
15,-12.535645977427384
16,4.708713387891862
17,-10.200883054381052
18,8.477107331491914
2,1, 1, 1, 0, 3, 0.00,15.00,Tuesday
7,-11.549999999999999
8,0.0
9,0.0
10,0.0
11,0.0
12,0.0
13,0.0
14,7.770793598290431
15,-12.408052677042491
16,4.685060547684202
17,-10.050043559007463
18,8.414518708249299
2,1, 1, 1, 0, 3,15.00,30.00,Tuesday
7,-11.399999999999999
8,0.0
9,0.0
10,0.0
11,0.0
12,0.0
13,0.0
14,7.715309931845862
15,-12.281760712214956
16,4.663114890360703
17,-9.899035093602607
18,8.353719192482878
2,1, 1, 1, 0, 3,30.00,45.00,Tuesday
7,-11.25
8,0.0
9,0.0
10,0.0
11,0.0
12,0.0
13,0.0
14,7.660532166320955
15,-12.156911218327775
16,4.642821648125107
17,-9.747777231007376
18,8.29365752372754
2,1, 1, 1, 0, 3,45.00,60.00,Tuesday
7,-11.1
8,0.0
9,0.0
10,0.0
11,0.0
12,0.0
13,0.0
14,7.60622838402127
15,-12.03355842900031
16,4.626182759702829
17,-9.605318196169037
18,8.23434784392187
2,1, 1, 1, 0, 4, 0.00,15.00,Tuesday
7,-11.1
8,0.0
9,0.0
10,0.0
11,0.0
12,0.0
13,0.0
14,7.548177410650363
15,-12.007256736642522
16,4.564961772446281
17,-9.632983356626596
18,8.174992557672202
2,1, 1, 1, 0, 4,15.00,30.00,Tuesday
7,-11.1
8,0.0
9,0.0
10,0.0
11,0.0
12,0.0
13,0.0
14,7.490579961750974
15,-11.981960996965972
16,4.508361286339323
17,-9.666972469893495
18,8.11527305064333
2,1, 1, 1, 0, 4,30.00,45.00,Tuesday
7,-11.1
8,0.0
9,0.0
10,0.0
11,0.0
12,0.0
13,0.0
14,7.432841459116686
15,-11.958097077677749
16,4.452358067059492
17,-9.700439352304216
18,8.055307430374791
2,1, 1, 1, 0, 4,45.00,60.00,Tuesday
7,-11.1
8,0.0
9,0.0
10,0.0
11,0.0
12,0.0
13,0.0
14,7.375070977133409
15,-11.935538931985152
16,4.396541483230294
17,-9.732903328903206
18,7.995300507612154
2,1, 1, 1, 0, 5, 0.00,15.00,Tuesday
7,-10.975
8,0.0
9,0.0
10,0.0
11,0.0
12,0.0
13,0.0
14,7.322784349848071
15,-11.813760078631308
16,4.370380890835804
17,-9.64253444812715
18,7.9363719273558799
2,1, 1, 1, 0, 5,15.00,30.00,Tuesday
7,-10.85
8,0.0
9,0.0
10,0.0
11,0.0
12,0.0
13,0.0
14,7.270712175260888
15,-11.692038637690857
16,4.3428040807112329
17,-9.544170150415824
18,7.878972603729767
2,1, 1, 1, 0, 5,30.00,45.00,Tuesday
7,-10.725
8,0.0
9,0.0
10,0.0
11,0.0
12,0.0
13,0.0
14,7.219646344589402
15,-11.57029509147044
16,4.3156194803070779
17,-9.445089099471545
18,7.822884031499532
2,1, 1, 1, 0, 5,45.00,60.00,Tuesday
7,-10.6
8,0.0
9,0.0
10,0.0
11,0.0
12,0.0
13,0.0
14,7.169416199166868
15,-11.448561149472546
16,4.289259103461575
17,-9.345826816114255
18,7.767751064539638
2,1, 1, 1, 0, 6, 0.00,15.00,Tuesday
7,-10.6
8,0.0
9,0.0
10,0.0
11,0.0
12,0.0
13,0.0
14,7.1124905647617349
15,-11.449652029802179
16,4.239385845495917
17,-9.346646729176996
18,7.712048786579507
2,1, 1, 1, 0, 6,15.00,30.00,Tuesday
7,-10.6
8,0.0
9,0.0
10,0.0
11,0.0
12,0.0
13,0.0
14,7.056203867521225
15,-11.450706778124705
16,4.190017101167484
17,-9.354124527548322
18,7.655107363435364
2,1, 1, 1, 0, 6,30.00,45.00,Tuesday
7,-10.6
8,0.0
9,0.0
10,0.0
11,0.0
12,0.0
13,0.0
14,6.9994119726512349
15,-11.451802464604672
16,4.140787072417197
17,-9.362107058630727
18,7.597210210081098
2,1, 1, 1, 0, 6,45.00,60.00,Tuesday
7,-10.6
8,0.0
9,0.0
10,0.0
11,0.0
12,0.0
13,0.0
14,6.942345063406916
15,-11.452895421518355
16,4.091207242419614
17,-9.370200505241542
18,7.538857213171028
2,1, 1, 1, 0, 7, 0.00,15.00,Tuesday
7,-10.6
8,0.0
9,0.0
10,0.0
11,0.0
12,0.0
13,0.0
14,6.887174071375671
15,-11.431116047947328
16,4.036700730828784
17,-9.397843931511773
18,7.4807127265805779
2,1, 1, 1, 0, 7,15.00,30.00,Tuesday
7,-10.6
8,0.0
9,0.0
10,0.0
11,0.0
12,0.0
13,0.0
14,6.8319305515500459
15,-11.410464810502596
16,3.983921009270034
17,-9.425652498918908
18,7.423107500348077
2,1, 1, 1, 0, 7,30.00,45.00,Tuesday
7,-10.6
8,0.0
9,0.0
10,0.0
11,0.0
12,0.0
13,0.0
14,6.7770145430856199
15,-11.390867702025318
16,3.9315402753504715
17,-9.45266897907868
18,7.366007432186495
2,1, 1, 1, 0, 7,45.00,60.00,Tuesday
7,-10.6
8,0.0
9,0.0
10,0.0
11,0.0
12,0.0
13,0.0
14,6.722420871708986
15,-11.372262144403365
16,3.8796379362592008
17,-9.478787158646015
18,7.309289074573487
2,1, 1, 1, 0, 8, 0.00,15.00,Tuesday
7,-10.45
8,0.0
9,0.0
10,0.0
11,0.0
12,0.0
13,0.0
14,6.66735713558566
15,-11.322016158430636
16,3.847213493489164
17,-9.42635528856897
18,7.252568867722453
2,1, 1, 1, 0, 8,15.00,30.00,Tuesday
7,-10.3
8,198.49303475921466
9,1.0
10,22.819555959623899
11,1.0
12,22.819555959623899
13,198.49303475921466
14,6.738880451332289
15,-9.647981070526078
16,4.109525529440361
17,-9.120573803016896
18,7.215785106557698
2,1, 1, 1, 0, 8,30.00,45.00,Tuesday
7,-10.15
8,974.6027902410967
9,1.0
10,109.75755355442667
11,1.0
12,109.75755355442667
13,974.6027902410967
14,7.155905766683054
15,-3.271067642305287
16,5.269284433095663
17,-8.100054287362923
18,7.2548344913349569
2,1, 1, 1, 0, 8,45.00,60.00,Tuesday
7,-10.0
8,1772.2105473427887
9,1.0
10,195.8764694434918
11,1.0
12,195.8764694434918
13,1772.2105473427887
14,7.674974400374647
15,3.1967078569306635
16,6.565819204941363
17,-7.080216082627317
18,7.3776485500525619
2,1, 1, 1, 0, 9, 0.00,15.00,Tuesday
7,-9.725
8,2567.07103636241
9,1.0
10,278.97248314719988
11,1.0
12,278.97248314719988
13,2567.07103636241
14,8.157670257017209
15,8.383176235009158
16,7.933505455787213
17,-6.177127359415408
18,7.558507573967571
2,1, 1, 1, 0, 9,15.00,30.00,Tuesday
7,-9.45
8,3404.945077593323
9,1.0
10,364.91995730569456
11,1.0
12,364.91995730569456
13,3404.945077593323
14,8.630739288781385
15,13.454801065187088
16,9.268595081192246
17,-5.267011424765769
18,7.787524613131971
2,1, 1, 1, 0, 9,30.00,45.00,Tuesday
7,-9.175
8,3959.279359646866
9,1.0
10,420.35879993239237
11,1.0
12,420.35879993239237
13,3959.279359646866
14,8.972937592075326
15,16.211336981499718
16,10.180181060893915
17,-4.705260452441621
18,8.04391417660714
2,1, 1, 1, 0, 9,45.00,60.00,Tuesday
7,-8.9
8,4534.723640710659
9,1.0
10,478.00138373643099
11,1.0
12,478.00138373643099
13,4534.723640710659
14,9.373329418239985
15,19.20515430291458
16,11.080149811446632
17,-4.122985086034646
18,8.316486604436277
2,1, 1, 1, 0,10, 0.00,15.00,Tuesday
7,-8.350000000000002
8,5122.325436329882
9,1.0
10,536.9185644770597
11,1.0
12,536.9185644770597
13,5122.325436329882
14,9.724174103891974
15,20.318473391607946
16,12.02089370106745
17,-3.4595641469052227
18,8.605291799009097
2,1, 1, 1, 0,10,15.00,30.00,Tuesday
7,-7.800000000000001
8,5730.227109160092
9,1.0
10,598.0969199229219
11,1.0
12,598.0969199229219
13,5730.227109160092
14,10.106893023929734
15,21.5683352164614
16,12.979504092744719
17,-2.796200412019914
18,8.740769288671047
2,1, 1, 1, 0,10,30.00,45.00,Tuesday
7,-7.25
8,6129.017662066558
9,1.0
10,637.6133352894237
11,1.0
12,637.6133352894237
13,6129.017662066558
14,10.367651853944606
15,21.62387225500556
16,13.67144744677779
17,-2.3137629091480678
18,9.003274619081678
2,1, 1, 1, 0,10,45.00,60.00,Tuesday
7,-6.7
8,6521.934241945964
9,1.0
10,676.6412284283772
11,1.0
12,676.6412284283772
13,6521.934241945964
14,10.621096941002059
15,21.78054516795791
16,14.301104677968056
17,-1.8367581169811729
18,9.19731793547573
2,1, 1, 1, 0,11, 0.00,15.00,Tuesday
7,-6.275
8,6907.702667445452
9,1.0
10,715.0112779846514
11,1.0
12,715.0112779846514
13,6907.702667445452
14,11.02434908453936
15,23.880116194857167
16,14.985698701178649
17,-1.1653693934857757
18,9.648700972609216
2,1, 1, 1, 0,11,15.00,30.00,Tuesday
7,-5.85
8,7284.390582955339
9,1.0
10,752.5077794605232
11,1.0
12,752.5077794605232
13,7284.390582955339
14,11.479373677042684
15,25.81725120598777
16,15.726392416917406
17,-0.5073060915901806
18,10.072270288133181
2,1, 1, 1, 0,11,30.00,45.00,Tuesday
7,-5.425
8,7172.439532346116
9,1.0
10,742.5988714321785
11,1.0
12,742.5988714321785
13,7172.439532346116
14,11.758068225447847
15,25.66912313296287
16,15.972903031238957
17,-0.18871140399085108
18,10.46241469120763
2,1, 1, 1, 0,11,45.00,60.00,Tuesday
7,-5.0
8,7012.474537249442
9,1.0
10,727.8169025450712
11,1.0
12,727.8169025450712
13,7012.474537249442
14,12.021783587295158
15,25.440870402458406
16,16.119691574680588
17,0.10245324161815006
18,10.805814050879622
2,1, 1, 1, 0,12, 0.00,15.00,Tuesday
7,-4.575
8,6737.383213522377
9,1.0
10,700.3759009170325
11,1.0
12,700.3759009170325
13,6737.383213522377
14,12.2103327833129
15,24.698914869868245
16,16.119315112096844
17,0.34906175746471038
18,11.100713287115891
2,1, 1, 1, 0,12,15.00,30.00,Tuesday
7,-4.15
8,6533.367409871273
9,1.0
10,681.6705029034473
11,1.0
12,681.6705029034473
13,6533.367409871273
14,12.386222998880026
15,24.368321733844888
16,16.162638106466944
17,0.6539383037612652
18,11.358691873263789
2,1, 1, 1, 0,12,30.00,45.00,Tuesday
7,-3.7249999999999998
8,5735.752453838288
9,1.0
10,602.01865277251
11,1.0
12,602.01865277251
13,5735.752453838288
14,12.332712612508673
15,21.341109754564969
16,15.561197505997143
17,0.5475655676465294
18,11.555271486705067
2,1, 1, 1, 0,12,45.00,60.00,Tuesday
7,-3.3
8,4684.461078610567
9,1.0
10,493.55004396206007
11,1.0
12,493.55004396206007
13,4684.461078610567
14,12.135763430545183
15,17.16323597930598
16,14.524496213683108
17,0.22271874355215005
18,11.661307298490808
2,1, 1, 1, 0,13, 0.00,15.00,Tuesday
7,-3.0249999999999996
8,3867.9417682351988
9,1.0
10,412.335026418112
11,1.0
12,412.335026418112
13,3867.9417682351988
14,12.000664587660838
15,14.320225703396034
16,13.68071310702021
17,0.018517566760351657
18,11.694670248433463
2,1, 1, 1, 0,13,15.00,30.00,Tuesday
7,-2.75
8,2832.9112038253649
9,1.0
10,305.94037763660148
11,1.0
12,305.94037763660148
13,2832.9112038253649
14,11.67188247446587
15,10.147673373622168
16,12.495893157687079
17,-0.3897052590458543
18,11.665986193437366
2,1, 1, 1, 0,13,30.00,45.00,Tuesday
7,-2.475
8,2586.3476478244808
9,1.0
10,281.0763483922329
11,1.0
12,281.0763483922329
13,2586.3476478244808
14,11.6397446408755
15,9.634110682940804
16,12.18048471392558
17,-0.23430446619101986
18,11.618152784873132
2,1, 1, 1, 0,13,45.00,60.00,Tuesday
7,-2.2
8,2344.9203514735729
9,1.0
10,256.7721209415886
11,1.0
12,256.7721209415886
13,2344.9203514735729
14,11.60261281302488
15,9.029720006764869
16,11.95623809494117
17,-0.05450300679024167
18,11.577138226516242
2,1, 1, 1, 0,14, 0.00,15.00,Tuesday
7,-1.9250000000000003
8,1915.5614378460905
9,1.0
10,210.73276284570657
11,1.0
12,210.73276284570657
13,1915.5614378460905
14,11.440063819244072
15,7.482282130796114
16,11.411826640559525
17,-0.0843593170410486
18,11.54021348566199
2,1, 1, 1, 0,14,15.00,30.00,Tuesday
7,-1.6500000000000002
8,1701.636890462901
9,1.0
10,189.38488290342594
11,1.0
12,189.38488290342594
13,1701.636890462901
14,11.408255173381669
15,7.083486248648542
16,11.152342014031888
17,0.0775671413391592
18,11.506175866977362
2,1, 1, 1, 0,14,30.00,45.00,Tuesday
7,-1.375
8,1622.8800248440066
9,1.0
10,179.3940297802914
11,1.0
12,179.3940297802914
13,1622.8800248440066
14,11.393502894732432
15,7.207001154847435
16,11.088560177049601
17,0.3261731832849364
18,11.476513993983489
2,1, 1, 1, 0,14,45.00,60.00,Tuesday
7,-1.1
8,1543.2234052226525
9,1.0
10,169.43349014176136
11,1.0
12,169.43349014176136
13,1543.2234052226525
14,11.374900923507403
15,7.307947099210754
16,11.016412271701825
17,0.573679448764949
18,11.450824556570412
2,1, 1, 1, 0,15, 0.00,15.00,Tuesday
7,-1.1
8,1624.3394505603424
9,1.0
10,178.15692317953907
11,1.0
12,178.15692317953907
13,1624.3394505603424
14,11.436673366583273
15,8.126662033290815
16,11.130435217000127
17,0.6961576808881773
18,11.433739774928636
2,1, 1, 1, 0,15,15.00,30.00,Tuesday
7,-1.1
8,1526.0223033702039
9,1.0
10,166.40516310952945
11,1.0
12,166.40516310952945
13,1526.0223033702039
14,11.378808947363793
15,7.764191963070655
16,11.002173658005632
17,0.6526846279127199
18,11.419099924336951
2,1, 1, 1, 0,15,30.00,45.00,Tuesday
7,-1.1
8,1286.7145871122662
9,1.0
10,140.8967369711617
11,1.0
12,140.8967369711617
13,1286.7145871122662
14,11.255206026309408
15,6.560766810983736
16,10.647716537087036
17,0.4603076698275572
18,11.39373511879633
2,1, 1, 1, 0,15,45.00,60.00,Tuesday
7,-1.1
8,1058.8612402206416
9,1.0
10,116.57355796743004
11,1.0
12,116.57355796743004
13,1058.8612402206416
14,11.141497548365703
15,5.358126449080222
16,10.293395268128223
17,0.27035202912202296
18,11.346854148147698
2,1, 1, 1, 0,16, 0.00,15.00,Tuesday
7,-1.1
8,840.3726933531048
9,1.0
10,93.14939272689483
11,1.0
12,93.14939272689483
13,840.3726933531048
14,11.025621031381327
15,4.310214576342984
16,9.970099913331638
17,0.15777409245055197
18,11.278261856982724
2,1, 1, 1, 0,16,15.00,30.00,Tuesday
7,-1.1
8,521.7048907738913
9,1.0
10,57.94047897402063
11,1.0
12,57.94047897402063
13,521.7048907738913
14,10.815824905770159
15,2.1915920569459348
16,9.48263992558816
17,-0.08665305364331744
18,11.183863546541831
2,1, 1, 1, 0,16,30.00,45.00,Tuesday
7,-1.1
8,404.4917082756416
9,1.0
10,45.38251793443488
11,1.0
12,45.38251793443488
13,404.4917082756416
14,10.728753654976178
15,1.5870710133381814
16,9.252254228856942
17,-0.11374038379454987
18,11.079504071000507
2,1, 1, 1, 0,16,45.00,60.00,Tuesday
7,-1.1
8,282.362010079345
9,1.0
10,32.02625108222755
11,1.0
12,32.02625108222755
13,282.362010079345
14,10.602805880353547
15,0.7312337102072751
16,9.043476868694939
17,-0.14137515499874099
18,10.978019166584116
2,1, 1, 1, 0,17, 0.00,15.00,Tuesday
7,-1.1
8,154.8751670521773
9,1.0
10,17.762198626050539
11,1.0
12,17.762198626050539
13,154.8751670521773
14,10.453406483730678
15,-0.5100067644370174
16,8.785176993538642
17,-0.2816364692185971
18,10.877424592261415
2,1, 1, 1, 0,17,15.00,30.00,Tuesday
7,-1.1
8,0.0
9,0.0
10,0.0
11,0.0
12,0.0
13,0.0
14,10.254269816544716
15,-2.342454403310108
16,8.459803380638391
17,-0.5350648329040268
18,10.764235754025604
2,1, 1, 1, 0,17,30.00,45.00,Tuesday
7,-1.1
8,0.0
9,0.0
10,0.0
11,0.0
12,0.0
13,0.0
14,10.18999131745085
15,-2.473619618215634
16,8.360170361694145
17,-0.5116309314587397
18,10.653853143487068
2,1, 1, 1, 0,17,45.00,60.00,Tuesday
7,-1.1
8,0.0
9,0.0
10,0.0
11,0.0
12,0.0
13,0.0
14,10.109708741744735
15,-2.656269296162764
16,8.305905157852067
17,-0.47445008442082328
18,10.560589046744959
2,1, 1, 1, 0,18, 0.00,15.00,Tuesday
7,-1.25
8,0.0
9,0.0
10,0.0
11,0.0
12,0.0
13,0.0
14,10.0410487663796
15,-2.8051778731250684
16,8.213086046782565
17,-0.6217641068734565
18,10.484896577718363
2,1, 1, 1, 0,18,15.00,30.00,Tuesday
7,-1.4
8,0.0
9,0.0
10,0.0
11,0.0
12,0.0
13,0.0
14,9.978144724710015
15,-2.957633576739971
16,8.134130699163848
17,-0.7577771598867003
18,10.421011334931924
2,1, 1, 1, 0,18,30.00,45.00,Tuesday
7,-1.5499999999999999
8,0.0
9,0.0
10,0.0
11,0.0
12,0.0
13,0.0
14,9.919561667366406
15,-3.109753188644383
16,8.059805610740796
17,-0.8933506009324219
18,10.363271891271883
2,1, 1, 1, 0,18,45.00,60.00,Tuesday
7,-1.7
8,0.0
9,0.0
10,0.0
11,0.0
12,0.0
13,0.0
14,9.86294756248673
15,-3.2620379027160397
16,7.988442791629836
17,-1.028323285224701
18,10.308273938595706
2,1, 1, 1, 0,19, 0.00,15.00,Tuesday
7,-1.825
8,0.0
9,0.0
10,0.0
11,0.0
12,0.0
13,0.0
14,9.829703200492201
15,-3.127521249849819
16,7.909284422419887
17,-1.2004687506188248
18,10.257929834010238
2,1, 1, 1, 0,19,15.00,30.00,Tuesday
7,-1.9500000000000002
8,0.0
9,0.0
10,0.0
11,0.0
12,0.0
13,0.0
14,9.795140134539335
15,-3.0727422128457437
16,7.842823036433515
17,-1.3613733247188976
18,10.214039239819055
2,1, 1, 1, 0,19,30.00,45.00,Tuesday
7,-2.075
8,0.0
9,0.0
10,0.0
11,0.0
12,0.0
13,0.0
14,9.756697684806325
15,-3.149795185851451
16,7.789444864456755
17,-1.4839388181054006
18,10.175164639632096
2,1, 1, 1, 0,19,45.00,60.00,Tuesday
7,-2.2
8,0.0
9,0.0
10,0.0
11,0.0
12,0.0
13,0.0
14,9.720963303871662
15,-3.138072077358133
16,7.7277376403579869
17,-1.636807420094442
18,10.138269140999585
2,1, 1, 1, 0,20, 0.00,15.00,Tuesday
7,-1.9250000000000003
8,0.0
9,0.0
10,0.0
11,0.0
12,0.0
13,0.0
14,9.700572811253457
15,-2.8394760085215284
16,7.747401651644736
17,-1.4244645921776283
18,10.10379856988019
2,1, 1, 1, 0,20,15.00,30.00,Tuesday
7,-1.6500000000000002
8,0.0
9,0.0
10,0.0
11,0.0
12,0.0
13,0.0
14,9.680506711272497
15,-2.5436341737073695
16,7.766762718155633
17,-1.2019607394393575
18,10.072322444549501
2,1, 1, 1, 0,20,30.00,45.00,Tuesday
7,-1.375
8,0.0
9,0.0
10,0.0
11,0.0
12,0.0
13,0.0
14,9.662170394336118
15,-2.2489585149645117
16,7.7876098431109999
17,-0.9774293509174186
18,10.043513272209204
2,1, 1, 1, 0,20,45.00,60.00,Tuesday
7,-1.1
8,0.0
9,0.0
10,0.0
11,0.0
12,0.0
13,0.0
14,9.645350548598575
15,-1.9554389049076282
16,7.8103438464777359
17,-0.7509534431989096
18,10.01672302007494
2,1, 1, 1, 0,21, 0.00,15.00,Tuesday
7,-1.25
8,0.0
9,0.0
10,0.0
11,0.0
12,0.0
13,0.0
14,9.590254841993448
15,-2.2257915467833389
16,7.7691678637414729
17,-0.8257086709824648
18,9.985365454994457
2,1, 1, 1, 0,21,15.00,30.00,Tuesday
7,-1.4
8,0.0
9,0.0
10,0.0
11,0.0
12,0.0
13,0.0
14,9.535946910159899
15,-2.436585744162514
16,7.712599686726207
17,-0.9235940726076706
18,9.944991624371083
2,1, 1, 1, 0,21,30.00,45.00,Tuesday
7,-1.5499999999999999
8,0.0
9,0.0
10,0.0
11,0.0
12,0.0
13,0.0
14,9.468967797253625
15,-2.7665001065551206
16,7.660972395178646
17,-0.9875869124705332
18,9.894960618746693
2,1, 1, 1, 0,21,45.00,60.00,Tuesday
7,-1.7
8,0.0
9,0.0
10,0.0
11,0.0
12,0.0
13,0.0
14,9.396697656040612
15,-3.201720629740253
16,7.608584907035038
17,-1.0202174738875556
18,9.837590970357779
2,1, 1, 1, 0,22, 0.00,15.00,Tuesday
7,-1.5499999999999999
8,0.0
9,0.0
10,0.0
11,0.0
12,0.0
13,0.0
14,9.38758430745061
15,-2.733716509861763
16,7.563044325922988
17,-0.9991155167630268
18,9.786104510778378
2,1, 1, 1, 0,22,15.00,30.00,Tuesday
7,-1.4
8,0.0
9,0.0
10,0.0
11,0.0
12,0.0
13,0.0
14,9.369218013558007
15,-2.4167409445329675
16,7.551659640351659
17,-0.9411008261351981
18,9.747449113301166
2,1, 1, 1, 0,22,30.00,45.00,Tuesday
7,-1.25
8,0.0
9,0.0
10,0.0
11,0.0
12,0.0
13,0.0
14,9.350598021711264
15,-2.2025445961822398
16,7.549980160000246
17,-0.84692729445851
18,9.719113759876759
2,1, 1, 1, 0,22,45.00,60.00,Tuesday
7,-1.1
8,0.0
9,0.0
10,0.0
11,0.0
12,0.0
13,0.0
14,9.335903550501652
15,-1.930594787736369
16,7.5465722050779509
17,-0.7654587745507797
18,9.69575518329801
2,1, 1, 1, 0,23, 0.00,15.00,Tuesday
7,-1.25
8,0.0
9,0.0
10,0.0
11,0.0
12,0.0
13,0.0
14,9.28025987550678
15,-2.23376290388213
16,7.463367209599767
17,-1.0525089317181938
18,9.66707446476947
2,1, 1, 1, 0,23,15.00,30.00,Tuesday
7,-1.4
8,0.0
9,0.0
10,0.0
11,0.0
12,0.0
13,0.0
14,9.226773176945148
15,-2.538460555506457
16,7.366783967854303
17,-1.353548671073895
18,9.6283062422541
2,1, 1, 1, 0,23,30.00,45.00,Tuesday
7,-1.5499999999999999
8,0.0
9,0.0
10,0.0
11,0.0
12,0.0
13,0.0
14,9.16846241352059
15,-2.843804787592934
16,7.268127045649862
17,-1.6564101541678725
18,9.580873736063987
2,1, 1, 1, 0,23,45.00,60.00,Tuesday
7,-1.7
8,0.0
9,0.0
10,0.0
11,0.0
12,0.0
13,0.0
14,9.106303585289196
15,-3.149494033853602
16,7.165112202787611
17,-1.961847155881287
18,9.527840721605707
2,1, 1, 1, 0,24, 0.00,15.00,Tuesday
7,-1.7
8,0.0
9,0.0
10,0.0
11,0.0
12,0.0
13,0.0
14,9.059435956571769
15,-3.2037893404948365
16,7.108490669851051
17,-2.0276421994144586
18,9.47464927243296
2,1, 1, 1, 0,24,15.00,30.00,Tuesday
7,-1.7
8,0.0
9,0.0
10,0.0
11,0.0
12,0.0
13,0.0
14,9.010590633133655
15,-3.2586060585525256
16,7.056751062679837
17,-2.0912568749351978
18,9.424092374943652
2,1, 1, 1, 0,24,30.00,45.00,Tuesday
7,-1.7
8,0.0
9,0.0
10,0.0
11,0.0
12,0.0
13,0.0
14,8.962912697436022
15,-3.31331770137432
16,7.004909057345799
17,-2.1547810098299466
18,9.376019774554623
2,1, 1, 1, 0,24,45.00,60.00,Tuesday
7,-1.7
8,0.0
9,0.0
10,0.0
11,0.0
12,0.0
13,0.0
14,8.916073267872062
15,-3.3680339493146986
16,6.95404715771042
17,-2.2180110478802819
18,9.329365157390552
End of Data
 Number of Records Written=        1152
