Program Version,EnergyPlus, Version 9.5.0-de239b2e5f, YMD=2023.02.17 18:12
1,5,Environment Title[],Latitude[deg],Longitude[deg],Time Zone[],Elevation[m]
2,8,Day of Simulation[],Month[],Day of Month[],DST Indicator[1=yes 0=no],Hour[],StartMinute[],EndMinute[],DayType
3,5,Cumulative Day of Simulation[],Month[],Day of Month[],DST Indicator[1=yes 0=no],DayType  ! When Daily Report Variables Requested
4,2,Cumulative Days of Simulation[],Month[]  ! When Monthly Report Variables Requested
5,1,Cumulative Days of Simulation[] ! When Run Period Report Variables Requested
6,1,Calendar Year of Simulation[] ! When Annual Report Variables Requested
7,1,Environment,Site Outdoor Air Drybulb Temperature [C] !TimeStep
8,1,ZONE ONE,Zone Windows Total Transmitted Solar Radiation Rate [W] !TimeStep
9,1,ZN001:WALL001,Surface Outside Face Sunlit Fraction [] !TimeStep
10,1,ZN001:WALL001,Surface Outside Face Incident Solar Radiation Rate per Area [W/m2] !TimeStep
11,1,ZN001:WALL001:WIN001,Surface Outside Face Sunlit Fraction [] !TimeStep
12,1,ZN001:WALL001:WIN001,Surface Outside Face Incident Solar Radiation Rate per Area [W/m2] !TimeStep
13,1,ZN001:WALL001:WIN001,Surface Window Transmitted Solar Radiation Rate [W] !TimeStep
14,1,ZN001:WALL001,Surface Inside Face Temperature [C] !TimeStep
15,1,ZN001:WALL001,Surface Outside Face Temperature [C] !TimeStep
16,1,ZN001:WALL001:WIN001,Surface Inside Face Temperature [C] !TimeStep
17,1,ZN001:WALL001:WIN001,Surface Outside Face Temperature [C] !TimeStep
18,1,ZONE ONE,Zone Mean Air Temperature [C] !TimeStep
End of Data Dictionary
1,RUN PERIOD 1,  41.98, -87.92,  -6.00, 201.00
2,1, 1, 1, 0, 1, 0.00,15.00,Tuesday
7,-4.324999999999999
8,0.0
9,0.0
10,0.0
11,0.0
12,0.0
13,0.0
14,0.4197550819763298
15,-5.996509375237896
16,-1.0901088245520896
17,-5.188426585096977
18,0.7347014815390538
2,1, 1, 1, 0, 1,15.00,30.00,Tuesday
7,-6.949999999999999
8,0.0
9,0.0
10,0.0
11,0.0
12,0.0
13,0.0
14,0.24614406732034656
15,-8.464474443626859
16,-1.7680419654277558
17,-7.234677488419834
18,0.6525152093708947
2,1, 1, 1, 0, 1,30.00,45.00,Tuesday
7,-9.575
8,0.0
9,0.0
10,0.0
11,0.0
12,0.0
13,0.0
14,0.051009564741609118
15,-10.941145363111792
16,-2.446031253241415
17,-9.287472312969499
18,0.5359877494543925
2,1, 1, 1, 0, 1,45.00,60.00,Tuesday
7,-12.2
8,0.0
9,0.0
10,0.0
11,0.0
12,0.0
13,0.0
14,-0.16104515128075803
15,-13.424293915085695
16,-3.137129756122249
17,-11.348864598627756
18,0.3943679661160617
2,1, 1, 1, 0, 2, 0.00,15.00,Tuesday
7,-12.075
8,0.0
9,0.0
10,0.0
11,0.0
12,0.0
13,0.0
14,-0.21307885327389243
15,-13.226115663097673
16,-3.1884137059234947
17,-11.20845620271848
18,0.2661536023178495
2,1, 1, 1, 0, 2,15.00,30.00,Tuesday
7,-11.95
8,0.0
9,0.0
10,0.0
11,0.0
12,0.0
13,0.0
14,-0.28136027993508236
15,-13.048796696418297
16,-3.202226421583646
17,-11.064990310611904
18,0.1701534501660137
2,1, 1, 1, 0, 2,30.00,45.00,Tuesday
7,-11.825
8,0.0
9,0.0
10,0.0
11,0.0
12,0.0
13,0.0
14,-0.33218510461634018
15,-12.870201420355933
16,-3.2071716377559484
17,-10.93101914853986
18,0.10230229887445427
2,1, 1, 1, 0, 2,45.00,60.00,Tuesday
7,-11.7
8,0.0
9,0.0
10,0.0
11,0.0
12,0.0
13,0.0
14,-0.37137881305134537
15,-12.69166133313927
16,-3.2074476776890608
17,-10.774300982398131
18,0.051789622356069559
2,1, 1, 1, 0, 3, 0.00,15.00,Tuesday
7,-11.549999999999999
8,0.0
9,0.0
10,0.0
11,0.0
12,0.0
13,0.0
14,-0.4086860372570963
15,-12.567848202854565
16,-3.196849801695066
17,-10.64809680008051
18,0.009357902484148704
2,1, 1, 1, 0, 3,15.00,30.00,Tuesday
7,-11.399999999999999
8,0.0
9,0.0
10,0.0
11,0.0
12,0.0
13,0.0
14,-0.4423396484468474
15,-12.445496084630472
16,-3.1868143704355136
17,-10.514316541955623
18,-0.029928500559258034
2,1, 1, 1, 0, 3,30.00,45.00,Tuesday
7,-11.25
8,0.0
9,0.0
10,0.0
11,0.0
12,0.0
13,0.0
14,-0.47482824363908546
15,-12.324786623688518
16,-3.17527977871066
17,-10.379818654912583
18,-0.06778011046301195
2,1, 1, 1, 0, 3,45.00,60.00,Tuesday
7,-11.1
8,0.0
9,0.0
10,0.0
11,0.0
12,0.0
13,0.0
14,-0.5066943569429823
15,-12.20578205311983
16,-3.1630821163611246
17,-10.245630268966125
18,-0.10459882529774532
2,1, 1, 1, 0, 4, 0.00,15.00,Tuesday
7,-11.1
8,0.0
9,0.0
10,0.0
11,0.0
12,0.0
13,0.0
14,-0.5421209196456204
15,-12.174122458339547
16,-3.2025832702757954
17,-10.259584755004198
18,-0.1413223623139732
2,1, 1, 1, 0, 4,15.00,30.00,Tuesday
7,-11.1
8,0.0
9,0.0
10,0.0
11,0.0
12,0.0
13,0.0
14,-0.5771474466860914
15,-12.143692099716873
16,-3.2365081108424649
17,-10.280560316107313
18,-0.17833320575929369
2,1, 1, 1, 0, 4,30.00,45.00,Tuesday
7,-11.1
8,0.0
9,0.0
10,0.0
11,0.0
12,0.0
13,0.0
14,-0.6123193985482511
15,-12.11494652857755
16,-3.2696307769854799
17,-10.301647375218295
18,-0.215572549361376
2,1, 1, 1, 0, 4,45.00,60.00,Tuesday
7,-11.1
8,0.0
9,0.0
10,0.0
11,0.0
12,0.0
13,0.0
14,-0.647567866427381
15,-12.087749632811417
16,-3.302546845706047
17,-10.322145887728482
18,-0.2528802649787999
2,1, 1, 1, 0, 5, 0.00,15.00,Tuesday
7,-10.975
8,0.0
9,0.0
10,0.0
11,0.0
12,0.0
13,0.0
14,-0.6760202745204228
15,-11.96541226019507
16,-3.2972159439630106
17,-10.235625224413355
18,-0.28901187218559368
2,1, 1, 1, 0, 5,15.00,30.00,Tuesday
7,-10.85
8,0.0
9,0.0
10,0.0
11,0.0
12,0.0
13,0.0
14,-0.7052789418799231
15,-11.84321513740879
16,-3.2935709068560756
17,-10.14134929913132
18,-0.323526618230599
2,1, 1, 1, 0, 5,30.00,45.00,Tuesday
7,-10.725
8,0.0
9,0.0
10,0.0
11,0.0
12,0.0
13,0.0
14,-0.7334943285730051
15,-11.720957495969742
16,-3.2899750969232857
17,-10.046251583773369
18,-0.3567029753481449
2,1, 1, 1, 0, 5,45.00,60.00,Tuesday
7,-10.6
8,0.0
9,0.0
10,0.0
11,0.0
12,0.0
13,0.0
14,-0.7609072429893413
15,-11.598713521080502
16,-3.285643650597194
17,-9.950886281487329
18,-0.3889272536096777
2,1, 1, 1, 0, 6, 0.00,15.00,Tuesday
7,-10.6
8,0.0
9,0.0
10,0.0
11,0.0
12,0.0
13,0.0
14,-0.7968032120261778
15,-11.599453503141327
16,-3.311682021382694
17,-9.952536389182285
18,-0.4218244237786537
2,1, 1, 1, 0, 6,15.00,30.00,Tuesday
7,-10.6
8,0.0
9,0.0
10,0.0
11,0.0
12,0.0
13,0.0
14,-0.8311300302908354
15,-11.600057932264623
16,-3.339677277694193
17,-9.957974514250282
18,-0.45614402153575669
2,1, 1, 1, 0, 6,30.00,45.00,Tuesday
7,-10.6
8,0.0
9,0.0
10,0.0
11,0.0
12,0.0
13,0.0
14,-0.8661194849851892
15,-11.60074641937889
16,-3.3674074390621628
17,-9.964201836726148
18,-0.49161808976026186
2,1, 1, 1, 0, 6,45.00,60.00,Tuesday
7,-10.6
8,0.0
9,0.0
10,0.0
11,0.0
12,0.0
13,0.0
14,-0.9014707785050252
15,-11.601430768912508
16,-3.3954358930160426
17,-9.97082089926073
18,-0.5277295041281034
2,1, 1, 1, 0, 7, 0.00,15.00,Tuesday
7,-10.6
8,0.0
9,0.0
10,0.0
11,0.0
12,0.0
13,0.0
14,-0.9346144328319173
15,-11.575344817348539
16,-3.429743895906654
17,-9.985731951756805
18,-0.5638316256575734
2,1, 1, 1, 0, 7,15.00,30.00,Tuesday
7,-10.6
8,0.0
9,0.0
10,0.0
11,0.0
12,0.0
13,0.0
14,-0.9679522213365231
15,-11.550614765001214
16,-3.460216390981543
17,-10.001890047874668
18,-0.5994883769035733
2,1, 1, 1, 0, 7,30.00,45.00,Tuesday
7,-10.6
8,0.0
9,0.0
10,0.0
11,0.0
12,0.0
13,0.0
14,-1.0010593156829125
15,-11.527134250548194
16,-3.4902555527529559
17,-10.017826775110052
18,-0.634658785331338
2,1, 1, 1, 0, 7,45.00,60.00,Tuesday
7,-10.6
8,0.0
9,0.0
10,0.0
11,0.0
12,0.0
13,0.0
14,-1.0338914447021202
15,-11.50483008143402
16,-3.519893260079357
17,-10.033230695376119
18,-0.6694484248228835
2,1, 1, 1, 0, 8, 0.00,15.00,Tuesday
7,-10.45
8,0.0
9,0.0
10,0.0
11,0.0
12,0.0
13,0.0
14,-1.0676562488145328
15,-11.457542138289817
16,-3.524846886381738
17,-10.001289128468102
18,-0.7042255656394376
2,1, 1, 1, 0, 8,15.00,30.00,Tuesday
7,-10.3
8,62.68259518327058
9,1.0
10,22.819555959623899
11,1.0
12,22.819555959623899
13,62.68259518327058
14,-0.9980831220548943
15,-9.784875213492004
16,-3.1366877193908069
17,-9.611809765917997
18,-0.72512366598678
2,1, 1, 1, 0, 8,30.00,45.00,Tuesday
7,-10.15
8,308.2953279346534
9,1.0
10,109.75755355442667
11,1.0
12,109.75755355442667
13,308.2953279346534
14,-0.6479642031728673
15,-3.42901637723148
16,-1.5381456329248522
17,-8.25935554214584
18,-0.6944607635782062
2,1, 1, 1, 0, 8,45.00,60.00,Tuesday
7,-10.0
8,562.3422687784711
9,1.0
10,195.8764694434918
11,1.0
12,195.8764694434918
13,562.3422687784711
14,-0.2149962233483745
15,3.064383355943271
16,0.21325968901504667
17,-6.9124671137549289
18,-0.6074495726294592
2,1, 1, 1, 0, 9, 0.00,15.00,Tuesday
7,-9.725
8,817.2982275628438
9,1.0
10,278.97248314719988
11,1.0
12,278.97248314719988
13,817.2982275628438
14,0.10951195999525129
15,8.247867694141548
16,1.757297827498519
17,-5.725852488971327
18,-0.4753878866497832
2,1, 1, 1, 0, 9,15.00,30.00,Tuesday
7,-9.45
8,1087.9842792513394
9,1.0
10,364.91995730569456
11,1.0
12,364.91995730569456
13,1087.9842792513394
14,0.4649897130678084
15,13.329638346402844
16,3.2941292780303117
17,-4.568950831532675
18,-0.30541388265741478
2,1, 1, 1, 0, 9,30.00,45.00,Tuesday
7,-9.175
8,1269.7384644262386
9,1.0
10,420.35879993239237
11,1.0
12,420.35879993239237
13,1269.7384644262386
14,0.7037327842927749
15,16.08989285280015
16,4.297453923906517
17,-3.842372684010229
18,-0.11584667135874341
2,1, 1, 1, 0, 9,45.00,60.00,Tuesday
7,-8.9
8,1459.3999901803693
9,1.0
10,478.00138373643099
11,1.0
12,478.00138373643099
13,1459.3999901803693
14,0.986126375245751
15,19.085799006162657
16,5.309477153885382
17,-3.0999065806965406
18,0.08500731544062451
2,1, 1, 1, 0,10, 0.00,15.00,Tuesday
7,-8.350000000000002
8,1654.0602724538422
9,1.0
10,536.9185644770597
11,1.0
12,536.9185644770597
13,1654.0602724538422
14,1.2073660361788233
15,20.207668644426307
16,6.343760092420894
17,-2.339705468556417
18,0.30183926733286456
2,1, 1, 1, 0,10,15.00,30.00,Tuesday
7,-7.800000000000001
8,1856.2381154001906
9,1.0
10,598.0969199229219
11,1.0
12,598.0969199229219
13,1856.2381154001906
14,1.4524833881249886
15,21.46389609642302
16,7.3950292750031398
17,-1.5850204007065259
18,0.5323245271509999
2,1, 1, 1, 0,10,30.00,45.00,Tuesday
7,-7.25
8,1991.2943522334199
9,1.0
10,637.6133352894237
11,1.0
12,637.6133352894237
13,1991.2943522334199
14,1.6312692824168882
15,21.52653858880111
16,8.123633856985748
17,-1.0739117505983132
18,0.7624550339543096
2,1, 1, 1, 0,10,45.00,60.00,Tuesday
7,-6.7
8,2124.718803994894
9,1.0
10,676.6412284283772
11,1.0
12,676.6412284283772
13,2124.718803994894
14,1.8248788946338717
15,21.689051007518356
16,8.827781799046705
17,-0.5682319830991673
18,0.9838819946711177
2,1, 1, 1, 0,11, 0.00,15.00,Tuesday
7,-6.275
8,2255.9195367796635
9,1.0
10,715.0112779846514
11,1.0
12,715.0112779846514
13,2255.9195367796635
14,2.0954593127307428
15,23.78618853570429
16,9.578785831053154
17,0.18069870383521903
18,1.2007193382763016
2,1, 1, 1, 0,11,15.00,30.00,Tuesday
7,-5.85
8,2384.0784971687405
9,1.0
10,752.5077794605232
11,1.0
12,752.5077794605232
13,2384.0784971687405
14,2.351380524626745
15,25.720933322515376
16,10.316648157647365
17,0.9079749128896424
18,1.4180197059237557
2,1, 1, 1, 0,11,30.00,45.00,Tuesday
7,-5.425
8,2349.886549614799
9,1.0
10,742.5988714321785
11,1.0
12,742.5988714321785
13,2349.886549614799
14,2.4903930439515977
15,25.572687131691553
16,10.40010403531653
17,1.1759810970119702
18,1.6213083530936537
2,1, 1, 1, 0,11,45.00,60.00,Tuesday
7,-5.0
8,2298.9491572667359
9,1.0
10,727.8169025450712
11,1.0
12,727.8169025450712
13,2298.9491572667359
14,2.6259848856201857
15,25.342967185556416
16,10.396261245298433
17,1.4073455520306198
18,1.8005871696485103
2,1, 1, 1, 0,12, 0.00,15.00,Tuesday
7,-4.575
8,2209.8666448316819
9,1.0
10,700.3759009170325
11,1.0
12,700.3759009170325
13,2209.8666448316819
14,2.7151428134019439
15,24.599960714734409
16,10.2229761925513
17,1.5629200372370634
18,1.951344793129969
2,1, 1, 1, 0,12,15.00,30.00,Tuesday
7,-4.15
8,2142.365412006645
9,1.0
10,681.6705029034473
11,1.0
12,681.6705029034473
13,2142.365412006645
14,2.8223599387571158
15,24.269075829550805
16,10.155277651493862
17,1.7990141246372105
18,2.0803692469634318
2,1, 1, 1, 0,12,30.00,45.00,Tuesday
7,-3.7249999999999998
8,1878.7733172913627
9,1.0
10,602.01865277251
11,1.0
12,602.01865277251
13,1878.7733172913627
14,2.734341801611992
15,21.240626681616445
16,9.241049325332029
17,1.474287758178093
18,2.171099292079107
2,1, 1, 1, 0,12,45.00,60.00,Tuesday
7,-3.3
8,1533.1141763893152
9,1.0
10,493.55004396206007
11,1.0
12,493.55004396206007
13,1533.1141763893152
14,2.5574758512851196
15,17.06172148735882
16,7.848029141567849
17,0.8595829472952801
18,2.207356420325423
2,1, 1, 1, 0,13, 0.00,15.00,Tuesday
7,-3.0249999999999996
8,1262.1745034810134
9,1.0
10,412.335026418112
11,1.0
12,412.335026418112
13,1262.1745034810134
14,2.434516233005841
15,14.216557299368727
16,6.7680733808059589
17,0.4327464133661465
18,2.200356698011587
2,1, 1, 1, 0,13,15.00,30.00,Tuesday
7,-2.75
8,921.2966907021292
9,1.0
10,305.94037763660148
11,1.0
12,305.94037763660148
13,921.2966907021292
14,2.194358835864785
15,10.042778632908906
16,5.274478275408001
17,-0.26142061275641029
18,2.1546079574535237
2,1, 1, 1, 0,13,30.00,45.00,Tuesday
7,-2.475
8,839.4953089041767
9,1.0
10,281.0763483922329
11,1.0
12,281.0763483922329
13,839.4953089041767
14,2.180106299424884
15,9.528988361040787
16,4.955328005203796
17,-0.1842850631927604
18,2.0991043974915568
2,1, 1, 1, 0,13,45.00,60.00,Tuesday
7,-2.2
8,759.404178234082
9,1.0
10,256.7721209415886
11,1.0
12,256.7721209415886
13,759.404178234082
14,2.150369070259638
15,8.921612882305777
16,4.681252351103922
17,-0.08523093841893115
18,2.053678805768484
2,1, 1, 1, 0,14, 0.00,15.00,Tuesday
7,-1.9250000000000003
8,619.333878529972
9,1.0
10,210.73276284570657
11,1.0
12,210.73276284570657
13,619.333878529972
14,2.0543215687151616
15,7.372706924405047
16,4.046244705477193
17,-0.24410707976471714
18,2.0143735237999325
2,1, 1, 1, 0,14,15.00,30.00,Tuesday
7,-1.6500000000000002
8,548.5049351992071
9,1.0
10,189.38488290342594
11,1.0
12,189.38488290342594
13,548.5049351992071
14,2.034238567408863
15,6.965354193592783
16,3.778085294030916
17,-0.1683179219691624
18,1.9811671911186362
2,1, 1, 1, 0,14,30.00,45.00,Tuesday
7,-1.375
8,523.398882730989
9,1.0
10,179.3940297802914
11,1.0
12,179.3940297802914
13,523.398882730989
14,2.039540780673459
15,7.0848852315440349
16,3.7094865776558665
17,0.03221268309073366
18,1.9556577223615679
2,1, 1, 1, 0,14,45.00,60.00,Tuesday
7,-1.1
8,497.77144159283258
9,1.0
10,169.43349014176136
11,1.0
12,169.43349014176136
13,497.77144159283258
14,2.041195374621897
15,7.181503266345111
16,3.6389328694434086
17,0.23039304055623689
18,1.9374939304748669
2,1, 1, 1, 0,15, 0.00,15.00,Tuesday
7,-1.1
8,523.3710618607482
9,1.0
10,178.15692317953907
11,1.0
12,178.15692317953907
13,523.3710618607482
14,2.08800475316572
15,7.995199716824835
16,3.7924643585226365
17,0.3713526994622498
18,1.928859864670804
2,1, 1, 1, 0,15,15.00,30.00,Tuesday
7,-1.1
8,491.30310926860639
9,1.0
10,166.40516310952945
11,1.0
12,166.40516310952945
13,491.30310926860639
14,2.055760216318533
15,7.631595863242582
16,3.6179697030294166
17,0.280810044755583
18,1.9240810757030525
2,1, 1, 1, 0,15,30.00,45.00,Tuesday
7,-1.1
8,413.4180617584151
9,1.0
10,140.8967369711617
11,1.0
12,140.8967369711617
13,413.4180617584151
14,1.9712414681785023
15,6.423395640753157
16,3.188528941044183
17,-0.006923497510229026
18,1.9126603529715687
2,1, 1, 1, 0,15,45.00,60.00,Tuesday
7,-1.1
8,339.51524159638429
9,1.0
10,116.57355796743004
11,1.0
12,116.57355796743004
13,339.51524159638429
14,1.884106345054856
15,5.211019836461597
16,2.751962328394143
17,-0.2959243484844478
18,1.8872271715444369
2,1, 1, 1, 0,16, 0.00,15.00,Tuesday
7,-1.1
8,268.92958112932936
9,1.0
10,93.14939272689483
11,1.0
12,93.14939272689483
13,268.92958112932936
14,1.7926959698620928
15,4.1467011787399159
16,2.3395599239655668
17,-0.5302826592729275
18,1.848656949477582
2,1, 1, 1, 0,16,15.00,30.00,Tuesday
7,-1.1
8,166.58870140514609
9,1.0
10,57.94047897402063
11,1.0
12,57.94047897402063
13,166.58870140514609
14,1.6378391455849273
15,2.019385246181631
16,1.6559852612310238
17,-0.9716669960095601
18,1.7946839025428317
2,1, 1, 1, 0,16,30.00,45.00,Tuesday
7,-1.1
8,128.92099738688845
9,1.0
10,45.38251793443488
11,1.0
12,45.38251793443488
13,128.92099738688845
14,1.5844174124358382
15,1.4006533154038377
16,1.3893775546916345
17,-1.108420076726361
18,1.7322436014525005
2,1, 1, 1, 0,16,45.00,60.00,Tuesday
7,-1.1
8,89.86050127113032
9,1.0
10,32.02625108222755
11,1.0
12,32.02625108222755
13,89.86050127113032
14,1.498561985603654
15,0.5262388945862802
16,1.1244184242257234
17,-1.2699348548910053
18,1.6671073878522505
2,1, 1, 1, 0,17, 0.00,15.00,Tuesday
7,-1.1
8,49.246356129998449
9,1.0
10,17.762198626050539
11,1.0
12,17.762198626050539
13,49.246356129998449
14,1.3839921090475525
15,-0.7400774720353581
16,0.7999901617158116
17,-1.5577483255055996
18,1.5967077063080022
2,1, 1, 1, 0,17,15.00,30.00,Tuesday
7,-1.1
8,0.0
9,0.0
10,0.0
11,0.0
12,0.0
13,0.0
14,1.2217901072670157
15,-2.5836668538872744
16,0.4081957982101585
17,-1.8914288550072343
18,1.5106993131718718
2,1, 1, 1, 0,17,30.00,45.00,Tuesday
7,-1.1
8,0.0
9,0.0
10,0.0
11,0.0
12,0.0
13,0.0
14,1.1802053163521738
15,-2.7257279014085125
16,0.3215430687538401
17,-1.958754864698335
18,1.4208512688007474
2,1, 1, 1, 0,17,45.00,60.00,Tuesday
7,-1.1
8,0.0
9,0.0
10,0.0
11,0.0
12,0.0
13,0.0
14,1.1227408278671412
15,-2.9286689602798905
16,0.26361540964728649
17,-2.0299337284851619
18,1.3425779111477184
2,1, 1, 1, 0,18, 0.00,15.00,Tuesday
7,-1.25
8,0.0
9,0.0
10,0.0
11,0.0
12,0.0
13,0.0
14,1.07585523128367
15,-3.0750238507937177
16,0.1832221958997593
17,-2.1675982813299017
18,1.280299772293818
2,1, 1, 1, 0,18,15.00,30.00,Tuesday
7,-1.4
8,0.0
9,0.0
10,0.0
11,0.0
12,0.0
13,0.0
14,1.0335211488961725
15,-3.22739135648449
16,0.11438189963507739
17,-2.2952962748899496
18,1.2311991227522599
2,1, 1, 1, 0,18,30.00,45.00,Tuesday
7,-1.5499999999999999
8,0.0
9,0.0
10,0.0
11,0.0
12,0.0
13,0.0
14,0.99668189279375
15,-3.3790658672556037
16,0.049422326371598049
17,-2.4223380821051707
18,1.190760012385379
2,1, 1, 1, 0,18,45.00,60.00,Tuesday
7,-1.7
8,0.0
9,0.0
10,0.0
11,0.0
12,0.0
13,0.0
14,0.9614019760146495
15,-3.530980445427653
16,-0.01196972107993588
17,-2.548226746532123
18,1.1553322475433734
2,1, 1, 1, 0,19, 0.00,15.00,Tuesday
7,-1.825
8,0.0
9,0.0
10,0.0
11,0.0
12,0.0
13,0.0
14,0.9547563425745944
15,-3.365341342885993
16,-0.036883745834586537
17,-2.565509138299433
18,1.1264522587272703
2,1, 1, 1, 0,19,15.00,30.00,Tuesday
7,-1.9500000000000002
8,0.0
9,0.0
10,0.0
11,0.0
12,0.0
13,0.0
14,0.9490189641427743
15,-3.283215394251356
16,-0.06052971391812889
17,-2.60362844182589
18,1.1056263550589019
2,1, 1, 1, 0,19,30.00,45.00,Tuesday
7,-2.075
8,0.0
9,0.0
10,0.0
11,0.0
12,0.0
13,0.0
14,0.9361536174102694
15,-3.3528884721313938
16,-0.09518406653523926
17,-2.6869971148430524
18,1.090950977308653
2,1, 1, 1, 0,19,45.00,60.00,Tuesday
7,-2.2
8,0.0
9,0.0
10,0.0
11,0.0
12,0.0
13,0.0
14,0.9276073045614278
15,-3.31702759731074
16,-0.11784512512321044
17,-2.742076671747782
18,1.07940136947446
2,1, 1, 1, 0,20, 0.00,15.00,Tuesday
7,-1.9250000000000003
8,0.0
9,0.0
10,0.0
11,0.0
12,0.0
13,0.0
14,0.9352036539883283
15,-3.0124096900513508
16,-0.04782344448756248
17,-2.5142464531636508
18,1.0709086219031539
2,1, 1, 1, 0,20,15.00,30.00,Tuesday
7,-1.6500000000000002
8,0.0
9,0.0
10,0.0
11,0.0
12,0.0
13,0.0
14,0.9434519287107053
15,-2.7111426346598019
16,0.022135006526468716
17,-2.2787232292311048
18,1.0656766379108425
2,1, 1, 1, 0,20,30.00,45.00,Tuesday
7,-1.375
8,0.0
9,0.0
10,0.0
11,0.0
12,0.0
13,0.0
14,0.9531426058766128
15,-2.411304091599783
16,0.09382696568604843
17,-2.0414395674636696
18,1.0632918437447945
2,1, 1, 1, 0,20,45.00,60.00,Tuesday
7,-1.1
8,0.0
9,0.0
10,0.0
11,0.0
12,0.0
13,0.0
14,0.9650064735278315
15,-2.112864173456384
16,0.16740278861107073
17,-1.8026011702341407
18,1.0631804852083334
2,1, 1, 1, 0,21, 0.00,15.00,Tuesday
7,-1.25
8,0.0
9,0.0
10,0.0
11,0.0
12,0.0
13,0.0
14,0.9312415003272783
15,-2.408116953837206
16,0.10427565461918675
17,-1.965021725534939
18,1.059157148851238
2,1, 1, 1, 0,21,15.00,30.00,Tuesday
7,-1.4
8,0.0
9,0.0
10,0.0
11,0.0
12,0.0
13,0.0
14,0.8951012373515046
15,-2.6321210733058799
16,0.04653283233216143
17,-2.1089819071346485
18,1.0461966325192176
2,1, 1, 1, 0,21,30.00,45.00,Tuesday
7,-1.5499999999999999
8,0.0
9,0.0
10,0.0
11,0.0
12,0.0
13,0.0
14,0.8459460950255853
15,-2.99467925733972
16,-0.029295031381593618
17,-2.2930088628231148
18,1.0224333395885732
2,1, 1, 1, 0,21,45.00,60.00,Tuesday
7,-1.7
8,0.0
9,0.0
10,0.0
11,0.0
12,0.0
13,0.0
14,0.7915924160759562
15,-3.46734090883854
16,-0.11783918950413863
17,-2.5099574349351316
18,0.989349128963495
2,1, 1, 1, 0,22, 0.00,15.00,Tuesday
7,-1.5499999999999999
8,0.0
9,0.0
10,0.0
11,0.0
12,0.0
13,0.0
14,0.8138561240826562
15,-2.955063363363761
16,-0.07518287190816864
17,-2.300384583325126
18,0.960864420137694
2,1, 1, 1, 0,22,15.00,30.00,Tuesday
7,-1.4
8,0.0
9,0.0
10,0.0
11,0.0
12,0.0
13,0.0
14,0.8266067432743007
15,-2.608142173222481
16,-0.015351093944104833
17,-2.1252549311109307
18,0.9450445622250291
2,1, 1, 1, 0,22,30.00,45.00,Tuesday
7,-1.25
8,0.0
9,0.0
10,0.0
11,0.0
12,0.0
13,0.0
14,0.8375455334936189
15,-2.3804617910576284
16,0.029966268160251276
17,-1.9790639720991408
18,0.9403326642918886
2,1, 1, 1, 0,22,45.00,60.00,Tuesday
7,-1.1
8,0.0
9,0.0
10,0.0
11,0.0
12,0.0
13,0.0
14,0.8521774783678123
15,-2.0843607405217696
16,0.08548309608295313
17,-1.7921459693483258
18,0.9419699090817996
2,1, 1, 1, 0,23, 0.00,15.00,Tuesday
7,-1.25
8,0.0
9,0.0
10,0.0
11,0.0
12,0.0
13,0.0
14,0.8178115067676894
15,-2.3883205100600266
16,-0.005460182459160023
17,-2.06558999056233
18,0.940240805453638
2,1, 1, 1, 0,23,15.00,30.00,Tuesday
7,-1.4
8,0.0
9,0.0
10,0.0
11,0.0
12,0.0
13,0.0
14,0.7851799983536131
15,-2.6928672752879039
16,-0.10785529667703031
17,-2.3494555756682304
18,0.9293807589810752
2,1, 1, 1, 0,23,30.00,45.00,Tuesday
7,-1.5499999999999999
8,0.0
9,0.0
10,0.0
11,0.0
12,0.0
13,0.0
14,0.7472889725093886
15,-2.997983648959911
16,-0.21111209469063398
17,-2.633392137414603
18,0.9092292639669877
2,1, 1, 1, 0,23,45.00,60.00,Tuesday
7,-1.7
8,0.0
9,0.0
10,0.0
11,0.0
12,0.0
13,0.0
14,0.7070073313775657
15,-3.303368588795204
16,-0.31778176768648339
17,-2.9180277741360216
18,0.8820623115249873
2,1, 1, 1, 0,24, 0.00,15.00,Tuesday
7,-1.7
8,0.0
9,0.0
10,0.0
11,0.0
12,0.0
13,0.0
14,0.6851555274358089
15,-3.3569560198105177
16,-0.3548548571166066
17,-2.9760646397671737
18,0.8533195376838736
2,1, 1, 1, 0,24,15.00,30.00,Tuesday
7,-1.7
8,0.0
9,0.0
10,0.0
11,0.0
12,0.0
13,0.0
14,0.6602060339661759
15,-3.4114070011377728
16,-0.38845399496904067
17,-3.03317787608421
18,0.8262840556580784
2,1, 1, 1, 0,24,30.00,45.00,Tuesday
7,-1.7
8,0.0
9,0.0
10,0.0
11,0.0
12,0.0
13,0.0
14,0.635836096332597
15,-3.465719615092049
16,-0.4227107436884694
17,-3.090525128541003
18,0.8013763000804072
2,1, 1, 1, 0,24,45.00,60.00,Tuesday
7,-1.7
8,0.0
9,0.0
10,0.0
11,0.0
12,0.0
13,0.0
14,0.6120316107946079
15,-3.5200295322437986
16,-0.45638786437609726
17,-3.1476594607069616
18,0.777881683512219
End of Data
 Number of Records Written=        1152
