Program Version,EnergyPlus, Version 9.5.0-de239b2e5f, YMD=2023.02.16 21:09
1,5,Environment Title[],Latitude[deg],Longitude[deg],Time Zone[],Elevation[m]
2,8,Day of Simulation[],Month[],Day of Month[],DST Indicator[1=yes 0=no],Hour[],StartMinute[],EndMinute[],DayType
3,5,Cumulative Day of Simulation[],Month[],Day of Month[],DST Indicator[1=yes 0=no],DayType  ! When Daily Report Variables Requested
4,2,Cumulative Days of Simulation[],Month[]  ! When Monthly Report Variables Requested
5,1,Cumulative Days of Simulation[] ! When Run Period Report Variables Requested
6,1,Calendar Year of Simulation[] ! When Annual Report Variables Requested
7,1,Environment,Site Outdoor Air Drybulb Temperature [C] !TimeStep
8,1,ZONE ONE,Zone Windows Total Transmitted Solar Radiation Rate [W] !TimeStep
9,1,ZN001:WALL001,Surface Outside Face Sunlit Fraction [] !TimeStep
10,1,ZN001:WALL001,Surface Outside Face Incident Solar Radiation Rate per Area [W/m2] !TimeStep
11,1,ZN001:WALL001:WIN001,Surface Outside Face Sunlit Fraction [] !TimeStep
12,1,ZN001:WALL001:WIN001,Surface Outside Face Incident Solar Radiation Rate per Area [W/m2] !TimeStep
13,1,ZN001:WALL001:WIN001,Surface Window Transmitted Solar Radiation Rate [W] !TimeStep
14,1,ZN001:WALL001,Surface Inside Face Temperature [C] !TimeStep
15,1,ZN001:WALL001,Surface Outside Face Temperature [C] !TimeStep
16,1,ZN001:WALL001:WIN001,Surface Inside Face Temperature [C] !TimeStep
17,1,ZN001:WALL001:WIN001,Surface Outside Face Temperature [C] !TimeStep
18,1,ZONE ONE,Zone Mean Air Temperature [C] !TimeStep
End of Data Dictionary
1,RUN PERIOD 1,  41.98, -87.92,  -6.00, 201.00
2,1, 1, 1, 0, 1, 0.00,15.00,Tuesday
7,-4.324999999999999
8,0.0
9,0.0
10,0.0
11,0.0
12,0.0
13,0.0
14,5.2218610431304
15,-5.908865724092351
16,1.9688626102698095
17,-3.7043399403258379
18,5.648479305174583
2,1, 1, 1, 0, 1,15.00,30.00,Tuesday
7,-6.949999999999999
8,0.0
9,0.0
10,0.0
11,0.0
12,0.0
13,0.0
14,5.034199861578095
15,-8.376506688704998
16,1.1595518398394802
17,-5.637009776396894
18,5.5430218602947589
2,1, 1, 1, 0, 1,30.00,45.00,Tuesday
7,-9.575
8,0.0
9,0.0
10,0.0
11,0.0
12,0.0
13,0.0
14,4.824505278023862
15,-10.852271169640562
16,0.3442035070535212
17,-7.575748156770942
18,5.402488539608543
2,1, 1, 1, 0, 1,45.00,60.00,Tuesday
7,-12.2
8,0.0
9,0.0
10,0.0
11,0.0
12,0.0
13,0.0
14,4.597411385816344
15,-13.334660950602045
16,-0.48574707004581799
17,-9.522893303227875
18,5.23777441426899
2,1, 1, 1, 0, 2, 0.00,15.00,Tuesday
7,-12.075
8,0.0
9,0.0
10,0.0
11,0.0
12,0.0
13,0.0
14,4.523318089946289
15,-13.13590616611733
16,-0.5230113493839212
17,-9.385198914313947
18,5.090538194119782
2,1, 1, 1, 0, 2,15.00,30.00,Tuesday
7,-11.95
8,0.0
9,0.0
10,0.0
11,0.0
12,0.0
13,0.0
14,4.436013700349156
15,-12.958915472249247
16,-0.5354910324751927
17,-9.271845710914704
18,4.9790485773713739
2,1, 1, 1, 0, 2,30.00,45.00,Tuesday
7,-11.825
8,0.0
9,0.0
10,0.0
11,0.0
12,0.0
13,0.0
14,4.367650565162086
15,-12.780688053294105
16,-0.5449450593307574
17,-9.148392382590942
18,4.896863957686694
2,1, 1, 1, 0, 2,45.00,60.00,Tuesday
7,-11.7
8,0.0
9,0.0
10,0.0
11,0.0
12,0.0
13,0.0
14,4.3115382932769699
15,-12.602542545973512
16,-0.542303132231325
17,-9.019646592461243
18,4.831591701215586
2,1, 1, 1, 0, 3, 0.00,15.00,Tuesday
7,-11.549999999999999
8,0.0
9,0.0
10,0.0
11,0.0
12,0.0
13,0.0
14,4.257617771357287
15,-12.476652862033049
16,-0.5263888029147665
17,-8.876186222954857
18,4.77354651735384
2,1, 1, 1, 0, 3,15.00,30.00,Tuesday
7,-11.399999999999999
8,0.0
9,0.0
10,0.0
11,0.0
12,0.0
13,0.0
14,4.207132189326243
15,-12.352142553866566
16,-0.5088208714537359
17,-8.7318344515013
18,4.718033636088633
2,1, 1, 1, 0, 3,30.00,45.00,Tuesday
7,-11.25
8,0.0
9,0.0
10,0.0
11,0.0
12,0.0
13,0.0
14,4.157664843450587
15,-12.229167107534073
16,-0.48960393678095218
17,-8.587160862240126
18,4.663686910616265
2,1, 1, 1, 0, 3,45.00,60.00,Tuesday
7,-11.1
8,0.0
9,0.0
10,0.0
11,0.0
12,0.0
13,0.0
14,4.108821949012181
15,-12.107782099438725
16,-0.46974913878347027
17,-8.44264230336978
18,4.610319567061395
2,1, 1, 1, 0, 4, 0.00,15.00,Tuesday
7,-11.1
8,0.0
9,0.0
10,0.0
11,0.0
12,0.0
13,0.0
14,4.055873720143496
15,-12.07925282725432
16,-0.534476230035807
17,-8.486282787930123
18,4.5565092802155269
2,1, 1, 1, 0, 4,15.00,30.00,Tuesday
7,-11.1
8,0.0
9,0.0
10,0.0
11,0.0
12,0.0
13,0.0
14,4.003268918084621
15,-12.05183755817634
16,-0.5904710194411109
17,-8.536790415041139
18,4.501787953378629
2,1, 1, 1, 0, 4,30.00,45.00,Tuesday
7,-11.1
8,0.0
9,0.0
10,0.0
11,0.0
12,0.0
13,0.0
14,3.950285075304835
15,-12.025964384915725
16,-0.6451826376376175
17,-8.587287568386614
18,4.446433312572431
2,1, 1, 1, 0, 4,45.00,60.00,Tuesday
7,-11.1
8,0.0
9,0.0
10,0.0
11,0.0
12,0.0
13,0.0
14,3.8971051986016449
15,-12.00149712635385
16,-0.6995179188626253
17,-8.636788372240006
18,4.390838842865753
2,1, 1, 1, 0, 5, 0.00,15.00,Tuesday
7,-10.975
8,0.0
9,0.0
10,0.0
11,0.0
12,0.0
13,0.0
14,3.8498188310257714
15,-11.879575786868602
16,-0.6975290651418504
17,-8.562633597970205
18,4.336595238526471
2,1, 1, 1, 0, 5,15.00,30.00,Tuesday
7,-10.85
8,0.0
9,0.0
10,0.0
11,0.0
12,0.0
13,0.0
14,3.8028381549659859
15,-11.757721240562314
16,-0.6989149379339779
17,-8.480751398330313
18,4.284297457927852
2,1, 1, 1, 0, 5,30.00,45.00,Tuesday
7,-10.725
8,0.0
9,0.0
10,0.0
11,0.0
12,0.0
13,0.0
14,3.757052850126128
15,-11.635839837638624
16,-0.7002216029169404
17,-8.397723590909095
18,4.233637050845383
2,1, 1, 1, 0, 5,45.00,60.00,Tuesday
7,-10.6
8,0.0
9,0.0
10,0.0
11,0.0
12,0.0
13,0.0
14,3.712252249621105
15,-11.513966881845482
16,-0.700721947553518
17,-8.314291529207253
18,4.184129401618738
2,1, 1, 1, 0, 6, 0.00,15.00,Tuesday
7,-10.6
8,0.0
9,0.0
10,0.0
11,0.0
12,0.0
13,0.0
14,3.6603054661337515
15,-11.514988829205056
16,-0.7413684282448116
17,-8.3200125679478
18,4.133947400119901
2,1, 1, 1, 0, 6,15.00,30.00,Tuesday
7,-10.6
8,0.0
9,0.0
10,0.0
11,0.0
12,0.0
13,0.0
14,3.6090025847484079
15,-11.515951196538686
16,-0.7802159404859026
17,-8.331595403403071
18,4.082310988842976
2,1, 1, 1, 0, 6,30.00,45.00,Tuesday
7,-10.6
8,0.0
9,0.0
10,0.0
11,0.0
12,0.0
13,0.0
14,3.5571250220155665
15,-11.516957437248996
16,-0.8187501135728326
17,-8.343862657598948
18,4.029541985638788
2,1, 1, 1, 0, 6,45.00,60.00,Tuesday
7,-10.6
8,0.0
9,0.0
10,0.0
11,0.0
12,0.0
13,0.0
14,3.5049157184430408
15,-11.517961295830548
16,-0.8576112864209335
17,-8.356354413940835
18,3.976215280902634
2,1, 1, 1, 0, 7, 0.00,15.00,Tuesday
7,-10.6
8,0.0
9,0.0
10,0.0
11,0.0
12,0.0
13,0.0
14,3.4546254923920669
15,-11.494378570699502
16,-0.9105849014952696
17,-8.399266457959812
18,3.9229241027586405
2,1, 1, 1, 0, 7,15.00,30.00,Tuesday
7,-10.6
8,0.0
9,0.0
10,0.0
11,0.0
12,0.0
13,0.0
14,3.40418635449855
15,-11.472023074757017
16,-0.9610543115534256
17,-8.442567398555753
18,3.870002760276738
2,1, 1, 1, 0, 7,30.00,45.00,Tuesday
7,-10.6
8,0.0
9,0.0
10,0.0
11,0.0
12,0.0
13,0.0
14,3.3539894802034189
15,-11.450804866090968
16,-1.0108148393838406
17,-8.48498399168409
18,3.817475532051675
2,1, 1, 1, 0, 7,45.00,60.00,Tuesday
7,-10.6
8,0.0
9,0.0
10,0.0
11,0.0
12,0.0
13,0.0
14,3.30406260100825
15,-11.430655778290353
16,-1.0599216520554365
17,-8.52626788055062
18,3.7652739416761165
2,1, 1, 1, 0, 8, 0.00,15.00,Tuesday
7,-10.45
8,0.0
9,0.0
10,0.0
11,0.0
12,0.0
13,0.0
14,3.2537752195046618
15,-11.381803823546463
16,-1.0648173729102837
17,-8.47174971701213
18,3.713384578748246
2,1, 1, 1, 0, 8,15.00,30.00,Tuesday
7,-10.3
8,164.70730277996078
9,1.0
10,22.819555959623899
11,1.0
12,22.819555959623899
13,164.70730277996078
14,3.327220464289042
15,-9.708150390489378
16,-0.74189054380372
17,-8.118925643110686
18,3.6804883536838526
2,1, 1, 1, 0, 8,30.00,45.00,Tuesday
7,-10.15
8,808.7145075753374
9,1.0
10,109.75755355442667
11,1.0
12,109.75755355442667
13,808.7145075753374
14,3.7397399195388796
15,-3.3387136808658695
16,0.5777011994420036
17,-6.930463145534532
18,3.7185469326958877
2,1, 1, 1, 0, 8,45.00,60.00,Tuesday
7,-10.0
8,1470.5605139501664
9,1.0
10,195.8764694434918
11,1.0
12,195.8764694434918
13,1470.5605139501664
14,4.277921516396355
15,3.154437410037358
16,1.9962734286700084
17,-5.7171805075107049
18,3.8342005575288815
2,1, 1, 1, 0, 9, 0.00,15.00,Tuesday
7,-9.725
8,2130.1268679617157
9,1.0
10,278.97248314719988
11,1.0
12,278.97248314719988
13,2130.1268679617157
14,4.6815307835050119
15,8.32017583177916
16,3.412764469239505
17,-4.630958991890111
18,4.005686579038212
2,1, 1, 1, 0, 9,15.00,30.00,Tuesday
7,-9.45
8,2825.385387072841
9,1.0
10,364.91995730569456
11,1.0
12,364.91995730569456
13,2825.385387072841
14,5.128191435025787
15,13.401796414821416
16,4.9478380434068189
17,-3.5134295746611317
18,4.222928929595696
2,1, 1, 1, 0, 9,30.00,45.00,Tuesday
7,-9.175
8,3285.3657815806207
9,1.0
10,420.35879993239237
11,1.0
12,420.35879993239237
13,3285.3657815806207
14,5.448404392449903
15,16.159477261743079
16,5.930196561124717
17,-2.8233138277042828
18,4.4638058858225
2,1, 1, 1, 0, 9,45.00,60.00,Tuesday
7,-8.9
8,3762.8630174369429
9,1.0
10,478.00138373643099
11,1.0
12,478.00138373643099
13,3762.8630174369429
14,5.820956867747028
15,19.154570232330465
16,6.910412417076827
17,-2.118394007231416
18,4.71789788405196
2,1, 1, 1, 0,10, 0.00,15.00,Tuesday
7,-8.350000000000002
8,4250.448423053731
9,1.0
10,536.9185644770597
11,1.0
12,536.9185644770597
13,4250.448423053731
14,6.139974253496938
15,20.271885090787547
16,7.894701437646631
17,-1.4369404559593023
18,4.985465960637645
2,1, 1, 1, 0,10,15.00,30.00,Tuesday
7,-7.800000000000001
8,4754.8784400001809
9,1.0
10,598.0969199229219
11,1.0
12,598.0969199229219
13,4754.8784400001809
14,6.487797518508636
15,21.524626692223415
16,8.893581569497087
17,-0.7549442463684954
18,5.272217543322102
2,1, 1, 1, 0,10,30.00,45.00,Tuesday
7,-7.25
8,5085.790385716765
9,1.0
10,637.6133352894237
11,1.0
12,637.6133352894237
13,5085.790385716765
14,6.758144535657106
15,21.584090163310539
16,9.603489752062956
17,-0.2944712733711299
18,5.392630669637732
2,1, 1, 1, 0,10,45.00,60.00,Tuesday
7,-6.7
8,5411.8281742364
9,1.0
10,676.6412284283772
11,1.0
12,676.6412284283772
13,5411.8281742364
14,7.007130177093674
15,21.742904311351638
16,10.269787558105748
17,0.15853604142722589
18,5.62988976278083
2,1, 1, 1, 0,11, 0.00,15.00,Tuesday
7,-6.275
8,5731.93450410702
9,1.0
10,715.0112779846514
11,1.0
12,715.0112779846514
13,5731.93450410702
14,7.3057706689817218
15,23.83969688929674
16,11.000375646289058
17,0.8732211768048046
18,5.8141493933345
2,1, 1, 1, 0,11,15.00,30.00,Tuesday
7,-5.85
8,6044.505928231053
9,1.0
10,752.5077794605232
11,1.0
12,752.5077794605232
13,6044.505928231053
14,7.670401857924352
15,25.776538886471383
16,11.747511251037281
17,1.5782327227522615
18,6.245692356075418
2,1, 1, 1, 0,11,30.00,45.00,Tuesday
7,-5.425
8,5951.610197095371
9,1.0
10,742.5988714321785
11,1.0
12,742.5988714321785
13,5951.610197095371
14,7.950739837798723
15,25.63020772071917
16,11.956414336029411
17,1.864255492866846
18,6.628272205191599
2,1, 1, 1, 0,11,45.00,60.00,Tuesday
7,-5.0
8,5818.873031211445
9,1.0
10,727.8169025450712
11,1.0
12,727.8169025450712
13,5818.873031211445
14,8.194120430808587
15,25.401170618157633
16,12.082882851533896
17,2.113454231575588
18,6.953405942371399
2,1, 1, 1, 0,12, 0.00,15.00,Tuesday
7,-4.575
8,5590.605323962885
9,1.0
10,700.3759009170325
11,1.0
12,700.3759009170325
13,5590.605323962885
14,8.366196864151919
15,24.65902610446875
16,12.049257201474575
17,2.2895897506372195
18,7.227684757941397
2,1, 1, 1, 0,12,15.00,30.00,Tuesday
7,-4.15
8,5421.315289253884
9,1.0
10,681.6705029034473
11,1.0
12,681.6705029034473
13,5421.315289253884
14,8.523525835558314
15,24.32814834750182
16,12.079787454518169
17,2.5327979434703709
18,7.465087323245661
2,1, 1, 1, 0,12,30.00,45.00,Tuesday
7,-3.7249999999999998
8,4759.463309286249
9,1.0
10,602.01865277251
11,1.0
12,602.01865277251
13,4759.463309286249
14,8.466547179559115
15,21.30088159994466
16,11.362115106327963
17,2.2526313294116564
18,7.643178458917265
2,1, 1, 1, 0,12,45.00,60.00,Tuesday
7,-3.3
8,3887.1134706147715
9,1.0
10,493.55004396206007
11,1.0
12,493.55004396206007
13,3887.1134706147715
14,8.27955623266019
15,17.12268494310043
16,10.194989028249552
17,1.6951182208904357
18,7.736244603102512
2,1, 1, 1, 0,13, 0.00,15.00,Tuesday
7,-3.0249999999999996
8,3209.574868603734
9,1.0
10,412.335026418112
11,1.0
12,412.335026418112
13,3209.574868603734
14,8.1514594511662
15,14.278832458217887
16,9.268104298080857
17,1.3092406455789388
18,7.761600739456575
2,1, 1, 1, 0,13,15.00,30.00,Tuesday
7,-2.75
8,2350.7180690914585
9,1.0
10,305.94037763660148
11,1.0
12,305.94037763660148
13,2350.7180690914585
14,7.8472788775516639
15,10.106183103356314
16,7.940938485670927
17,0.6652979153586784
18,7.730059705145201
2,1, 1, 1, 0,13,30.00,45.00,Tuesday
7,-2.475
8,2146.122384804586
9,1.0
10,281.0763483922329
11,1.0
12,281.0763483922329
13,2146.122384804586
14,7.826516961653441
15,9.594244070049462
16,7.65552287239268
17,0.7446491667548685
18,7.681459901788638
2,1, 1, 1, 0,13,45.00,60.00,Tuesday
7,-2.2
8,1945.7887113955822
9,1.0
10,256.7721209415886
11,1.0
12,256.7721209415886
13,1945.7887113955822
14,7.7901264423731739
15,8.987082009471126
16,7.448572665923905
17,0.8529585365141088
18,7.641461434880352
2,1, 1, 1, 0,14, 0.00,15.00,Tuesday
7,-1.9250000000000003
8,1589.5114814468812
9,1.0
10,210.73276284570657
11,1.0
12,210.73276284570657
13,1589.5114814468812
14,7.650426068686597
15,7.4402394367149669
16,6.924750444714164
17,0.7327658180593062
18,7.605413102419873
2,1, 1, 1, 0,14,15.00,30.00,Tuesday
7,-1.6500000000000002
8,1411.9992818845379
9,1.0
10,189.38488290342594
11,1.0
12,189.38488290342594
13,1411.9992818845379
14,7.617088477089164
15,7.034927960365506
16,6.718889145570131
17,0.8302018179213064
18,7.573016060567765
2,1, 1, 1, 0,14,30.00,45.00,Tuesday
7,-1.375
8,1346.6477146256526
9,1.0
10,179.3940297802914
11,1.0
12,179.3940297802914
13,1346.6477146256526
14,7.6096969894806849
15,7.157593788812911
16,6.709146863296269
17,1.0525767944764085
18,7.54624695399261
2,1, 1, 1, 0,14,45.00,60.00,Tuesday
7,-1.1
8,1280.5495415471219
9,1.0
10,169.43349014176136
11,1.0
12,169.43349014176136
13,1280.5495415471219
14,7.597853901289026
15,7.256754354194169
16,6.693540604486145
17,1.2717114004925634
18,7.524891209965255
2,1, 1, 1, 0,15, 0.00,15.00,Tuesday
7,-1.1
8,1347.8587297811799
9,1.0
10,178.15692317953907
11,1.0
12,178.15692317953907
13,1347.8587297811799
14,7.658119778003016
15,8.073707774511944
16,6.837836025045249
17,1.4258925031767263
18,7.5126450891308249
2,1, 1, 1, 0,15,15.00,30.00,Tuesday
7,-1.1
8,1266.276259391967
9,1.0
10,166.40516310952945
11,1.0
12,166.40516310952945
13,1266.276259391967
14,7.607662270725212
15,7.71179324487258
16,6.706335959892272
17,1.371631135263783
18,7.503119623137807
2,1, 1, 1, 0,15,30.00,45.00,Tuesday
7,-1.1
8,1067.701389865137
9,1.0
10,140.8967369711617
11,1.0
12,140.8967369711617
13,1067.701389865137
14,7.491520371184768
15,6.5057764253782539
16,6.3353024715897849
17,1.1393181845476193
18,7.485113353232546
2,1, 1, 1, 0,15,45.00,60.00,Tuesday
7,-1.1
8,878.6312280760801
9,1.0
10,116.57355796743004
11,1.0
12,116.57355796743004
13,878.6312280760801
14,7.364286205456627
15,5.2920008042587869
16,5.966549246206114
17,0.9006439916348654
18,7.450336529234146
2,1, 1, 1, 0,16, 0.00,15.00,Tuesday
7,-1.1
8,697.3318727282369
9,1.0
10,93.14939272689483
11,1.0
12,93.14939272689483
13,697.3318727282369
14,7.259467710890809
15,4.245807932883532
16,5.645666997906744
17,0.7448323566288764
18,7.396344683068021
2,1, 1, 1, 0,16,15.00,30.00,Tuesday
7,-1.1
8,432.9048901425401
9,1.0
10,57.94047897402063
11,1.0
12,57.94047897402063
13,432.9048901425401
14,7.061701924456885
15,2.1208744503288976
16,5.13902500712129
17,0.43024581601707725
18,7.3145069825512449
2,1, 1, 1, 0,16,30.00,45.00,Tuesday
7,-1.1
8,335.64270075152066
9,1.0
10,45.38251793443488
11,1.0
12,45.38251793443488
13,335.64270075152066
14,6.985064065989084
15,1.5107205259851764
16,4.937950170113027
17,0.37880745378885197
18,7.220446179435716
2,1, 1, 1, 0,16,45.00,60.00,Tuesday
7,-1.1
8,234.3008415590897
9,1.0
10,32.02625108222755
11,1.0
12,32.02625108222755
13,234.3008415590897
14,6.868425369942218
15,0.647022588628125
16,4.744249288693595
17,0.32209764995616299
18,7.127561692800555
2,1, 1, 1, 0,17, 0.00,15.00,Tuesday
7,-1.1
8,128.5136834333092
9,1.0
10,17.762198626050539
11,1.0
12,17.762198626050539
13,128.5136834333092
14,6.726825190350539
15,-0.6045124408834679
16,4.487721040005681
17,0.15995346705392422
18,7.035052633557816
2,1, 1, 1, 0,17,15.00,30.00,Tuesday
7,-1.1
8,0.0
9,0.0
10,0.0
11,0.0
12,0.0
13,0.0
14,6.534546080534916
15,-2.441974858838546
16,4.138893870709069
17,-0.13256892498645812
18,6.930439134066311
2,1, 1, 1, 0,17,30.00,45.00,Tuesday
7,-1.1
8,0.0
9,0.0
10,0.0
11,0.0
12,0.0
13,0.0
14,6.478505663155078
15,-2.5777636329210806
16,4.077776107458021
17,-0.10773591127326654
18,6.828425230622212
2,1, 1, 1, 0,17,45.00,60.00,Tuesday
7,-1.1
8,0.0
9,0.0
10,0.0
11,0.0
12,0.0
13,0.0
14,6.406280120040062
15,-2.769013127733053
16,4.050831157779044
17,-0.0650423528741726
18,6.742735400975733
2,1, 1, 1, 0,18, 0.00,15.00,Tuesday
7,-1.25
8,0.0
9,0.0
10,0.0
11,0.0
12,0.0
13,0.0
14,6.345274320533322
15,-2.9168370361820155
16,3.952564340492927
17,-0.1925026178155349
18,6.673731587071012
2,1, 1, 1, 0,18,15.00,30.00,Tuesday
7,-1.4
8,0.0
9,0.0
10,0.0
11,0.0
12,0.0
13,0.0
14,6.289407967632071
15,-3.0693110570831365
16,3.868009677491216
17,-0.31661368320214935
18,6.616103769644557
2,1, 1, 1, 0,18,30.00,45.00,Tuesday
7,-1.5499999999999999
8,0.0
9,0.0
10,0.0
11,0.0
12,0.0
13,0.0
14,6.237561761468904
15,-3.2213232392401318
16,3.7879653800588359
17,-0.4396239307845349
18,6.564599005341989
2,1, 1, 1, 0,18,45.00,60.00,Tuesday
7,-1.7
8,0.0
9,0.0
10,0.0
11,0.0
12,0.0
13,0.0
14,6.187583088191555
15,-3.373508979578932
16,3.7105540418663169
17,-0.561770750187236
18,6.51597338968008
2,1, 1, 1, 0,19, 0.00,15.00,Tuesday
7,-1.825
8,0.0
9,0.0
10,0.0
11,0.0
12,0.0
13,0.0
14,6.162340492288943
15,-3.2259964993432925
16,3.604366490490861
17,-0.7477391003667435
18,6.47185726460823
2,1, 1, 1, 0,19,15.00,30.00,Tuesday
7,-1.9500000000000002
8,0.0
9,0.0
10,0.0
11,0.0
12,0.0
13,0.0
14,6.135827276155582
15,-3.159880685878155
16,3.5150453077120007
17,-0.9204700301748403
18,6.433990741717248
2,1, 1, 1, 0,19,30.00,45.00,Tuesday
7,-2.075
8,0.0
9,0.0
10,0.0
11,0.0
12,0.0
13,0.0
14,6.104772679134398
15,-3.233913898131661
16,3.4534729371192158
17,-1.039562052989936
18,6.401267311286969
2,1, 1, 1, 0,19,45.00,60.00,Tuesday
7,-2.2
8,0.0
9,0.0
10,0.0
11,0.0
12,0.0
13,0.0
14,6.0763009389145579
15,-3.212245187425326
16,3.367843031650466
17,-1.20477990270399
18,6.370621023161578
2,1, 1, 1, 0,20, 0.00,15.00,Tuesday
7,-1.9250000000000003
8,0.0
9,0.0
10,0.0
11,0.0
12,0.0
13,0.0
14,6.064453862372549
15,-2.9112482962922496
16,3.4375181954502525
17,-1.0362118783701818
18,6.343238416876229
2,1, 1, 1, 0,20,15.00,30.00,Tuesday
7,-1.6500000000000002
8,0.0
9,0.0
10,0.0
11,0.0
12,0.0
13,0.0
14,6.053179082948202
15,-2.613203149322586
16,3.493003025539906
17,-0.838230025476264
18,6.3197527011702239
2,1, 1, 1, 0,20,30.00,45.00,Tuesday
7,-1.375
8,0.0
9,0.0
10,0.0
11,0.0
12,0.0
13,0.0
14,6.0451075344313669
15,-2.3164375300136355
16,3.559951412467342
17,-0.6544214584621386
18,6.2998371901487089
2,1, 1, 1, 0,20,45.00,60.00,Tuesday
7,-1.1
8,0.0
9,0.0
10,0.0
11,0.0
12,0.0
13,0.0
14,6.037672264664297
15,-2.020963372419287
16,3.6196394005152117
17,-0.4485830351578102
18,6.282460463871701
2,1, 1, 1, 0,21, 0.00,15.00,Tuesday
7,-1.25
8,0.0
9,0.0
10,0.0
11,0.0
12,0.0
13,0.0
14,5.987938601868757
15,-2.3016401867909335
16,3.5850962683920217
17,-0.49014153354323755
18,6.260450266670798
2,1, 1, 1, 0,21,15.00,30.00,Tuesday
7,-1.4
8,0.0
9,0.0
10,0.0
11,0.0
12,0.0
13,0.0
14,5.939858751390599
15,-2.517930733509782
16,3.5303772096539207
17,-0.5663736743131267
18,6.228935590421435
2,1, 1, 1, 0,21,30.00,45.00,Tuesday
7,-1.5499999999999999
8,0.0
9,0.0
10,0.0
11,0.0
12,0.0
13,0.0
14,5.878495907404124
15,-2.861662289046761
16,3.4951824822337018
17,-0.5973849491637679
18,6.187327316214384
2,1, 1, 1, 0,21,45.00,60.00,Tuesday
7,-1.7
8,0.0
9,0.0
10,0.0
11,0.0
12,0.0
13,0.0
14,5.81198144600781
15,-3.312884671089961
16,3.4644234008147238
17,-0.6003471134691267
18,6.138108768750907
2,1, 1, 1, 0,22, 0.00,15.00,Tuesday
7,-1.5499999999999999
8,0.0
9,0.0
10,0.0
11,0.0
12,0.0
13,0.0
14,5.814008991910229
15,-2.8261982072380698
16,3.4225107821226858
17,-0.6191380790054382
18,6.094305267688642
2,1, 1, 1, 0,22,15.00,30.00,Tuesday
7,-1.4
8,0.0
9,0.0
10,0.0
11,0.0
12,0.0
13,0.0
14,5.806001300845881
15,-2.496743760659747
16,3.421817494785955
17,-0.60153167050305
18,6.06307756655796
2,1, 1, 1, 0,22,30.00,45.00,Tuesday
7,-1.25
8,0.0
9,0.0
10,0.0
11,0.0
12,0.0
13,0.0
14,5.796769389473473
15,-2.276968169950595
16,3.438050135691526
17,-0.5284594805377196
18,6.042377317071013
2,1, 1, 1, 0,22,45.00,60.00,Tuesday
7,-1.1
8,0.0
9,0.0
10,0.0
11,0.0
12,0.0
13,0.0
14,5.791321747295094
15,-1.9949548160886877
16,3.445797824465785
17,-0.4794269863708678
18,6.026994427672186
2,1, 1, 1, 0,23, 0.00,15.00,Tuesday
7,-1.25
8,0.0
9,0.0
10,0.0
11,0.0
12,0.0
13,0.0
14,5.740285005303016
15,-2.298409021904033
16,3.3260816189495587
17,-0.735123756408484
18,6.006102606017896
2,1, 1, 1, 0,23,15.00,30.00,Tuesday
7,-1.4
8,0.0
9,0.0
10,0.0
11,0.0
12,0.0
13,0.0
14,5.692349341776237
15,-2.603046357588373
16,3.1972851253659657
17,-1.0051968051393488
18,5.974521856381769
2,1, 1, 1, 0,23,30.00,45.00,Tuesday
7,-1.5499999999999999
8,0.0
9,0.0
10,0.0
11,0.0
12,0.0
13,0.0
14,5.6395290956849879
15,-2.908371048650801
16,3.0669064458291475
17,-1.2766262624236902
18,5.933546291596525
2,1, 1, 1, 0,23,45.00,60.00,Tuesday
7,-1.7
8,0.0
9,0.0
10,0.0
11,0.0
12,0.0
13,0.0
14,5.5826894893237199
15,-3.214036461272081
16,2.932667041812408
17,-1.5499710002016514
18,5.886316318120785
2,1, 1, 1, 0,24, 0.00,15.00,Tuesday
7,-1.7
8,0.0
9,0.0
10,0.0
11,0.0
12,0.0
13,0.0
14,5.542372483264636
15,-3.2681221598502869
16,2.880064775923472
17,-1.6155694999700928
18,5.838824104546806
2,1, 1, 1, 0,24,15.00,30.00,Tuesday
7,-1.7
8,0.0
9,0.0
10,0.0
11,0.0
12,0.0
13,0.0
14,5.499948225970291
15,-3.3228326843170685
16,2.830491472786207
17,-1.6769498169949202
18,5.794175639068366
2,1, 1, 1, 0,24,30.00,45.00,Tuesday
7,-1.7
8,0.0
9,0.0
10,0.0
11,0.0
12,0.0
13,0.0
14,5.458695831159123
15,-3.377430357527185
16,2.7806267135295
17,-1.738394545345841
18,5.752284547317802
2,1, 1, 1, 0,24,45.00,60.00,Tuesday
7,-1.7
8,0.0
9,0.0
10,0.0
11,0.0
12,0.0
13,0.0
14,5.41832390546216
15,-3.4320304417176259
16,2.7316461499480058
17,-1.7994583808130074
18,5.712021665386372
End of Data
 Number of Records Written=        1152
